 vasp.5.3.5 31Mar14 (build Nov 09 2015 12:05:13) complex                        
  
 executed on             LinuxIFC date 2018.01.17  15:58:31
 running on   24 total cores
 distrk:  each k-point on   24 cores,    1 groups
 distr:  one band on NCORES_PER_BAND=  12 cores,    2 groups


--------------------------------------------------------------------------------------------------------


 INCAR:
 POTCAR:    PAW_PBE Te 08Apr2002                  

 ----------------------------------------------------------------------------- 
|                                                                             |
|           W    W    AA    RRRRR   N    N  II  N    N   GGGG   !!!           |
|           W    W   A  A   R    R  NN   N  II  NN   N  G    G  !!!           |
|           W    W  A    A  R    R  N N  N  II  N N  N  G       !!!           |
|           W WW W  AAAAAA  RRRRR   N  N N  II  N  N N  G  GGG   !            |
|           WW  WW  A    A  R   R   N   NN  II  N   NN  G    G                |
|           W    W  A    A  R    R  N    N  II  N    N   GGGG   !!!           |
|                                                                             |
|      For optimal performance we recommend to set                            |
|        NCORE= 4 - approx SQRT( number of cores)                             |
|      NCORE specifies how many cores store one orbital (NPAR=cpu/NCORE).     |
|      This setting can  greatly improve the performance of VASP for DFT.     |
|      The default, NPAR=number of cores might be grossly inefficient         |
|      on modern multi-core architectures or massively parallel machines.     |
|      Do your own testing !!!!                                               |
|      Unfortunately you need to use the default for GW and RPA calculations. |
|      (for HF NCORE is supported but not extensively tested yet)             |
|                                                                             |
 ----------------------------------------------------------------------------- 


 ----------------------------------------------------------------------------- 
|                                                                             |
|  ADVICE TO THIS USER RUNNING 'VASP/VAMP'   (HEAR YOUR MASTER'S VOICE ...):  |
|                                                                             |
|      You have switched on vdW-DFT.                                          |
|      This routine was written and supplied by Jiri Klimes.                  |
|      We recommed that you carefully read and cite the following             |
|      publication                                                            |
|      J. Klimes, D.R. Bowler, A. Michelides                                  |
|        J. Phys.: Cond Matt. 22 022201 (2010)                                |
|      J. Klimes, D.R. Bowler, A. Michelides                                  |
|        Phys. Rev. B. 83, 195131 (2011)                                      |
|      and references therein.                                                |
|                                                                             |
 ----------------------------------------------------------------------------- 

 POTCAR:    PAW_PBE Te 08Apr2002                  
   VRHFIN =Te: s2p4                                                             
   LEXCH  = PE                                                                  
   EATOM  =   223.2721 eV,   16.4100 Ry                                         
                                                                                
   TITEL  = PAW_PBE Te 08Apr2002                                                
   LULTRA =        F    use ultrasoft PP ?                                      
   IUNSCR =        1    unscreen: 0-lin 1-nonlin 2-no                           
   RPACOR =    2.200    partial core radius                                     
   POMASS =  127.600; ZVAL   =    6.000    mass and valenz                      
   RCORE  =    2.300    outmost cutoff radius                                   
   RWIGS  =    2.900; RWIGS  =    1.535    wigner-seitz radius (au A)           
   ENMAX  =  174.982; ENMIN  =  131.236 eV                                      
   ICORE  =        3    local potential                                         
   LCOR   =        T    correct aug charges                                     
   LPAW   =        T    paw PP                                                  
   EAUG   =  368.792                                                            
   DEXC   =    0.000                                                            
   RMAX   =    2.345    core radius for proj-oper                               
   RAUG   =    1.300    factor for augmentation sphere                          
   RDEP   =    2.397    radius for radial grids                                 
   RDEPT  =    2.174    core radius for aug-charge                              
                                                                                
   Atomic configuration                                                         
   13 entries                                                                   
     n  l   j            E        occ.                                          
     1  0  0.50    -31621.2075   2.0000                                         
     2  0  0.50     -4848.7941   2.0000                                         
     2  1  1.50     -4352.1960   6.0000                                         
     3  0  0.50      -964.9612   2.0000                                         
     3  1  1.50      -803.6179   6.0000                                         
     3  2  2.50      -559.8710  10.0000                                         
     4  0  0.50      -164.3522   2.0000                                         
     4  1  1.50      -114.3756   6.0000                                         
     4  2  2.50       -41.6483  10.0000                                         
     5  0  0.50       -15.1072   2.0000                                         
     5  1  0.50        -5.9526   4.0000                                         
     5  2  1.50        -5.4423   0.0000                                         
     4  3  2.50        -5.4423   0.0000                                         
   Description                                                                  
     l       E           TYP  RCUT    TYP  RCUT                                 
     0    -15.1072389     23  2.300                                             
     0    -16.4678215     23  2.300                                             
     1     -5.9526306     23  2.300                                             
     1     -2.4873968     23  2.300                                             
     2     -5.4423304     23  2.300                                             
     3     -1.3605826     23  2.300                                             
  local pseudopotential read in
  partial core-charges read in
  partial kinetic energy density read in
  atomic valenz-charges read in
  non local Contribution for L=           0  read in
    real space projection operators read in
  non local Contribution for L=           0  read in
    real space projection operators read in
  non local Contribution for L=           1  read in
    real space projection operators read in
  non local Contribution for L=           1  read in
    real space projection operators read in
  non local Contribution for L=           2  read in
    real space projection operators read in
    PAW grid and wavefunctions read in
 
   number of l-projection  operators is LMAX  =           5
   number of lm-projection operators is LMMAX =          13
 
 Optimization of the real space projectors (new method)

 maximal supplied QI-value         = 16.25
 optimisation between [QCUT,QGAM] = [ 11.38, 22.75] = [ 36.24,144.96] Ry 
 Optimized for a Real-space Cutoff    1.35 Angstroem

   l    n(q)    QCUT    max X(q) W(low)/X(q) W(high)/X(q)  e(spline) 
   0      9    11.376   224.858    0.20E-03    0.18E-03    0.54E-07
   0      9    11.376   205.313    0.21E-03    0.18E-03    0.54E-07
   1      9    11.376   119.695    0.22E-03    0.11E-03    0.15E-06
   1      9    11.376    84.282    0.22E-03    0.11E-03    0.15E-06
   2      8    11.376     5.599    0.13E-03    0.13E-03    0.32E-07

 ----------------------------------------------------------------------------- 
|                                                                             |
|  ADVICE TO THIS USER RUNNING 'VASP/VAMP'   (HEAR YOUR MASTER'S VOICE ...):  |
|                                                                             |
|      You enforced a specific xc-type in the INCAR file,                     |
|      a different type was found on the POTCAR file                          |
|          I HOPE YOU KNOW, WHAT YOU ARE  DOING                               |
|                                                                             |
 ----------------------------------------------------------------------------- 

  PAW_PBE Te 08Apr2002                  :
 energy of atom  1       EATOM= -223.2721
 kinetic energy error for atom=    0.0007 (will be added to EATOM!!)
 
 
 POSCAR: Te                                      
  positions in cartesian coordinates
  No initial velocities read in
 exchange correlation table for  LEXCH =       42
   RHO(1)=    0.500       N(1)  =     2000
   RHO(2)=  100.500       N(2)  =     4000

 VTST: version 3.1, (03/28/14)

 CHAIN: initializing optimizer
 
 OPT: Using VASP QUASI-newton optimizer
 CHAIN: Read ICHAIN            0
 
 POSCAR: Te                                      
  positions in cartesian coordinates
  No initial velocities read in
 


--------------------------------------------------------------------------------------------------------


 ion  position               nearest neighbor table
   1  0.219  0.167  0.050-  19 2.77  13 3.04  14 3.04
   2  0.219  0.500  0.050-  20 2.77  15 3.04  14 3.04
   3  0.219  0.833  0.050-  21 2.77  13 3.04  15 3.04
   4  0.552  0.167  0.050-  22 2.77  16 3.04  17 3.04
   5  0.552  0.500  0.050-  23 2.77  18 3.04  17 3.04
   6  0.552  0.833  0.050-  24 2.77  16 3.04  18 3.04
   7  0.886  0.167  0.050-  25 2.77  10 3.04  11 3.04
   8  0.886  0.500  0.050-  26 2.77  12 3.04  11 3.04
   9  0.886  0.833  0.050-  27 2.77  10 3.04  12 3.04
  10  0.000  0.000  0.086-   7 3.04   9 3.04  19 3.04  21 3.04
  11  0.000  0.333  0.086-   8 3.04   7 3.04  20 3.04  19 3.04
  12  0.000  0.667  0.086-   8 3.04   9 3.04  20 3.04  21 3.04
  13  0.333  0.000  0.086-   1 3.04   3 3.04  22 3.04  24 3.04
  14  0.333  0.333  0.086-   2 3.04   1 3.04  23 3.04  22 3.04
  15  0.333  0.667  0.086-   2 3.04   3 3.04  23 3.04  24 3.04
  16  0.667  0.000  0.086-   4 3.04   6 3.04  25 3.04  27 3.04
  17  0.667  0.333  0.086-   5 3.04   4 3.04  26 3.04  25 3.04
  18  0.667  0.667  0.086-   5 3.04   6 3.04  26 3.04  27 3.04
  19  0.114  0.167  0.122-   1 2.77  10 3.04  11 3.04
  20  0.114  0.500  0.122-   2 2.77  11 3.04  12 3.04
  21  0.114  0.833  0.122-   3 2.77  10 3.04  12 3.04
  22  0.448  0.167  0.122-   4 2.77  13 3.04  14 3.04
  23  0.448  0.500  0.122-   5 2.77  14 3.04  15 3.04
  24  0.448  0.833  0.122-   6 2.77  13 3.04  15 3.04
  25  0.781  0.167  0.122-   7 2.77  16 3.04  17 3.04
  26  0.781  0.500  0.122-   8 2.77  17 3.04  18 3.04
  27  0.781  0.833  0.122-   9 2.77  16 3.04  18 3.04
 
  LATTYP: Found a simple orthorhombic cell.
 ALAT       =    12.6743930235
 B/A-ratio  =     1.3183881346
 C/A-ratio  =     2.3669772544
  
  Lattice vectors:
  
 A1 = (   0.0000000000, -12.6743930235,   0.0000000000)
 A2 = ( -16.7097693750,   0.0000000000,   0.0000000000)
 A3 = (   0.0000000000,   0.0000000000, -30.0000000000)


Analysis of symmetry for initial positions (statically):
=====================================================================
 Subroutine PRICEL returns following result:
 
  LATTYP: Found a simple orthorhombic cell.
 ALAT       =     4.2247976745
 B/A-ratio  =     1.3183881346
 C/A-ratio  =     7.1009317632
  
  Lattice vectors:
  
 A1 = (   0.0000000000,  -4.2247976745,   0.0000000000)
 A2 = (  -5.5699231250,   0.0000000000,   0.0000000000)
 A3 = (   0.0000000000,   0.0000000000, -30.0000000000)
 
   9 primitive cells build up your supercell.
 

 Routine SETGRP: Setting up the symmetry group for a 
 simple orthorhombic supercell.


 Subroutine GETGRP returns: Found  2 space group operations
 (whereof  2 operations were pure point group operations)
 out of a pool of  8 trial point group operations.


The static configuration has the point symmetry C_1h.


Analysis of symmetry for dynamics (positions and initial velocities):
=====================================================================
 Subroutine PRICEL returns following result:
 
  LATTYP: Found a simple orthorhombic cell.
 ALAT       =     4.2247976745
 B/A-ratio  =     1.3183881346
 C/A-ratio  =     7.1009317632
  
  Lattice vectors:
  
 A1 = (   0.0000000000,  -4.2247976745,   0.0000000000)
 A2 = (  -5.5699231250,   0.0000000000,   0.0000000000)
 A3 = (   0.0000000000,   0.0000000000, -30.0000000000)
 
   9 primitive cells build up your supercell.
 

 Routine SETGRP: Setting up the symmetry group for a 
 simple orthorhombic supercell.


 Subroutine GETGRP returns: Found  2 space group operations
 (whereof  2 operations were pure point group operations)
 out of a pool of  8 trial point group operations.


The dynamic configuration has the point symmetry C_1h.
 
 
 KPOINTS: KPTS                                    

Automatic generation of k-mesh.
Space group operators:
 irot       det(A)        alpha          n_x          n_y          n_z        tau_x        tau_y        tau_z
    1     1.000000     0.000000     1.000000     0.000000     0.000000     0.000000     0.000000     0.000000
    2    -1.000000   180.000000     0.000000     1.000000     0.000000     0.000000     0.000000     0.000000
 
 Subroutine IBZKPT returns following result:
 ===========================================
 
 Found      9 irreducible k-points:
 
 Following reciprocal coordinates:
            Coordinates               Weight
  0.000000  0.000000  0.000000      1.000000
  0.200000  0.000000  0.000000      2.000000
  0.400000  0.000000  0.000000      2.000000
  0.000000  0.250000  0.000000      2.000000
  0.200000  0.250000  0.000000      4.000000
  0.400000  0.250000  0.000000      4.000000
  0.000000  0.500000  0.000000      1.000000
  0.200000  0.500000  0.000000      2.000000
  0.400000  0.500000  0.000000      2.000000
 
 Following cartesian coordinates:
            Coordinates               Weight
  0.000000  0.000000  0.000000      1.000000
  0.011969  0.000000  0.000000      2.000000
  0.023938  0.000000  0.000000      2.000000
  0.000000  0.019725  0.000000      2.000000
  0.011969  0.019725  0.000000      4.000000
  0.023938  0.019725  0.000000      4.000000
  0.000000  0.039450  0.000000      1.000000
  0.011969  0.039450  0.000000      2.000000
  0.023938  0.039450  0.000000      2.000000
 


--------------------------------------------------------------------------------------------------------




 Dimension of arrays:
   k-points           NKPTS =      9   k-points in BZ     NKDIM =      9   number of bands    NBANDS=     98
   number of dos      NEDOS =    301   number of ions     NIONS =     27
   non local maximal  LDIM  =      5   non local SUM 2l+1 LMDIM =     13
   total plane-waves  NPLWV = ******
   max r-space proj   IRMAX =   4438   max aug-charges    IRDMAX=  25000
   dimension x,y,z NGX =   126 NGY =   96 NGZ =  224
   dimension x,y,z NGXF=   252 NGYF=  192 NGZF=  448
   support grid    NGXF=   252 NGYF=  192 NGZF=  448
   ions per type =              27
 NGX,Y,Z   is equivalent  to a cutoff of  12.54, 12.59, 12.41 a.u.
 NGXF,Y,Z  is equivalent  to a cutoff of  25.07, 25.18, 24.83 a.u.


 I would recommend the setting:
   dimension x,y,z NGX =   122 NGY =   92 NGZ =  219
 SYSTEM =  alpha-Te                                
 POSCAR =  Te                                      

 Startparameter for this run:
   NWRITE =      2    write-flag & timer
   PREC   = accura    normal or accurate (medium, high low for compatibility)
   ISTART =      0    job   : 0-new  1-cont  2-samecut
   ICHARG =      2    charge: 1-file 2-atom 10-const
   ISPIN  =      1    spin polarized calculation?
   LNONCOLLINEAR =      F non collinear calculations
   LSORBIT =      F    spin-orbit coupling
   INIWAV =      1    electr: 0-lowe 1-rand  2-diag
   LASPH  =      F    aspherical Exc in radial PAW
   METAGGA=      F    non-selfconsistent MetaGGA calc.

 Electronic Relaxation 1
   ENCUT  =  500.0 eV  36.75 Ry    6.06 a.u.  30.47 23.11 54.70*2*pi/ulx,y,z
   ENINI  =  500.0     initial cutoff
   ENAUG  =  368.8 eV  augmentation charge cutoff
   NELM   =     60;   NELMIN=  6; NELMDL= -5     # of ELM steps 
   EDIFF  = 0.1E-05   stopping-criterion for ELM
   LREAL  =      T    real-space projection
   NLSPLINE    = F    spline interpolate recip. space projectors
   LCOMPAT=      F    compatible to vasp.4.4
   GGA_COMPAT  = T    GGA compatible to vasp.4.4-vasp.4.6
   LMAXPAW     = -100 max onsite density
   LMAXMIX     =    2 max onsite mixed and CHGCAR
   VOSKOWN=      0    Vosko Wilk Nusair interpolation
   ROPT   =   -0.00025
 Ionic relaxation
   EDIFFG = -.3E-01   stopping-criterion for IOM
   NSW    =    200    number of steps for IOM
   NBLOCK =      1;   KBLOCK =    200    inner block; outer block 
   IBRION =      1    ionic relax: 0-MD 1-quasi-New 2-CG
   NFREE  =      0    steps in history (QN), initial steepest desc. (CG)
   ISIF   =      3    stress and relaxation
   IWAVPR =     11    prediction:  0-non 1-charg 2-wave 3-comb
   ISYM   =      2    0-nonsym 1-usesym 2-fastsym
   LCORR  =      T    Harris-Foulkes like correction to forces

   POTIM  = 0.2000    time-step for ionic-motion
   TEIN   =    0.0    initial temperature
   TEBEG  =    0.0;   TEEND  =   0.0 temperature during run
   SMASS  =  -3.00    Nose mass-parameter (am)
   estimated Nose-frequenzy (Omega)   =  0.10E-29 period in steps =****** mass=  -0.638E-26a.u.
   SCALEE = 1.0000    scale energy and forces
   NPACO  =    256;   APACO  = 16.0  distance and # of slots for P.C.
   PSTRESS=    0.0 pullay stress

  Mass of Ions in am
   POMASS = 127.60
  Ionic Valenz
   ZVAL   =   6.00
  Atomic Wigner-Seitz radii
   RWIGS  =  -1.00
  virtual crystal weights 
   VCA    =   1.00
   NELECT =     162.0000    total number of electrons
   NUPDOWN=      -1.0000    fix difference up-down

 DOS related values:
   EMIN   =  10.00;   EMAX   =-10.00  energy-range for DOS
   EFERMI =   0.00
   ISMEAR =     0;   SIGMA  =   0.10  broadening in eV -4-tet -1-fermi 0-gaus

 Electronic relaxation 2 (details)
   IALGO  =     38    algorithm
   LDIAG  =      T    sub-space diagonalisation (order eigenvalues)
   LSUBROT=      F    optimize rotation matrix (better conditioning)
   TURBO    =      0    0=normal 1=particle mesh
   IRESTART =      0    0=no restart 2=restart with 2 vectors
   NREBOOT  =      0    no. of reboots
   NMIN     =      0    reboot dimension
   EREF     =   0.00    reference energy to select bands
   IMIX   =      4    mixing-type and parameters
     AMIX     =   0.40;   BMIX     =  1.00
     AMIX_MAG =   1.60;   BMIX_MAG =  1.00
     AMIN     =   0.10
     WC   =   100.;   INIMIX=   1;  MIXPRE=   1;  MAXMIX= -45

 Intra band minimization:
   WEIMIN = 0.0010     energy-eigenvalue tresh-hold
   EBREAK =  0.26E-08  absolut break condition
   DEPER  =   0.30     relativ break condition  

   TIME   =   0.40     timestep for ELM

  volume/ion in A,a.u.               =     235.32      1588.00
  Fermi-wavevector in a.u.,A,eV,Ry     =   0.481844  0.910554  3.158920  0.232174
  Thomas-Fermi vector in A             =   1.480155
 
 Write flags
   LWAVE  =      F    write WAVECAR
   LCHARG =      F    write CHGCAR
   LVTOT  =      F    write LOCPOT, total local potential
   LVHAR  =      F    write LOCPOT, Hartree potential only
   LELF   =      F    write electronic localiz. function (ELF)
   LORBIT =      0    0 simple, 1 ext, 2 COOP (PROOUT)


 Dipole corrections
   LMONO  =      F    monopole corrections only (constant potential shift)
   LDIPOL =      F    correct potential (dipole corrections)
   IDIPOL =      0    1-x, 2-y, 3-z, 4-all directions 
   EPSILON=  1.0000000 bulk dielectric constant

 Exchange correlation treatment:
   GGA     =    BO    GGA type
   LEXCH   =    42    internal setting for exchange type
   VOSKOWN=      0    Vosko Wilk Nusair interpolation
   LHFCALC =     F    Hartree Fock is set to
   LHFONE  =     F    Hartree Fock one center treatment
   AEXX    =    0.0000 exact exchange contribution

 vdW DFT:
   LUSE_VDW   =     T    switch on vdW DFT
   Zab_VDW    =-.8491    correlation parameter
   PARAM1     =0.1833
   PARAM2     =0.2200
   PARAM3     =0.0000

 Linear response parameters
   LEPSILON=     F    determine dielectric tensor
   LRPA    =     F    only Hartree local field effects (RPA)
   LNABLA  =     F    use nabla operator in PAW spheres
   LVEL    =     F    velocity operator in full k-point grid
   LINTERFAST=   F  fast interpolation
   KINTER  =     0    interpolate to denser k-point grid
   CSHIFT  =0.1000    complex shift for real part using Kramers Kronig
   OMEGAMAX=  -1.0    maximum frequency
   DEG_THRESHOLD= 0.2000000E-02 threshold for treating states as degnerate
   RTIME   =    0.100 relaxation time in fs

 Orbital magnetization related:
   ORBITALMAG=     F  switch on orbital magnetization
   LCHIMAG   =     F  perturbation theory with respect to B field
   DQ        =  0.001000  dq finite difference perturbation B field



--------------------------------------------------------------------------------------------------------


 quasi-Newton-method for relaxation of ions
 charge density and potential will be updated during run
 non-spin polarized calculation
 Variant of blocked Davidson
 Davidson routine will perform the subspace rotation
 perform sub-space diagonalisation
    after iterative eigenvector-optimisation
 modified Broyden-mixing scheme, WC =      100.0
 initial mixing is a Kerker type mixing with AMIX =  0.4000 and BMIX =      1.0000
 Hartree-type preconditioning will be used
 using additional bands           17
 real space projection scheme for non local part
 use partial core corrections
 calculate Harris-corrections to forces 
   (improved forces if not selfconsistent)
 use gradient corrections 
 use of overlap-Matrix (Vanderbilt PP)
 Gauss-broadening in eV      SIGMA  =   0.10


--------------------------------------------------------------------------------------------------------


  energy-cutoff  :      500.00
  volume of cell :     6353.59
      direct lattice vectors                 reciprocal lattice vectors
    16.709769375  0.000000000  0.000000000     0.059845231  0.000000000  0.000000000
     0.000000000 12.674393023  0.000000000     0.000000000  0.078899242  0.000000000
     0.000000000  0.000000000 30.000000000     0.000000000  0.000000000  0.033333333

  length of vectors
    16.709769375 12.674393023 30.000000000     0.059845231  0.078899242  0.033333333


 
 k-points in units of 2pi/SCALE and weight: KPTS                                    
   0.00000000  0.00000000  0.00000000       0.050
   0.01196905  0.00000000  0.00000000       0.100
   0.02393809  0.00000000  0.00000000       0.100
   0.00000000  0.01972481  0.00000000       0.100
   0.01196905  0.01972481  0.00000000       0.200
   0.02393809  0.01972481  0.00000000       0.200
   0.00000000  0.03944962  0.00000000       0.050
   0.01196905  0.03944962  0.00000000       0.100
   0.02393809  0.03944962  0.00000000       0.100
 
 k-points in reciprocal lattice and weights: KPTS                                    
   0.00000000  0.00000000  0.00000000       0.050
   0.20000000  0.00000000  0.00000000       0.100
   0.40000000  0.00000000  0.00000000       0.100
   0.00000000  0.25000000  0.00000000       0.100
   0.20000000  0.25000000  0.00000000       0.200
   0.40000000  0.25000000  0.00000000       0.200
   0.00000000  0.50000000  0.00000000       0.050
   0.20000000  0.50000000  0.00000000       0.100
   0.40000000  0.50000000  0.00000000       0.100
 
 position of ions in fractional coordinates (direct lattice) 
   0.21910518  0.16666667  0.05019678
   0.21910518  0.50000000  0.05019678
   0.21910518  0.83333333  0.05019678
   0.55243852  0.16666667  0.05019678
   0.55243852  0.50000000  0.05019678
   0.55243852  0.83333333  0.05019678
   0.88577185  0.16666667  0.05019678
   0.88577185  0.50000000  0.05019678
   0.88577185  0.83333333  0.05019678
   0.00001013  0.00000000  0.08597623
   0.00001013  0.33333333  0.08597623
   0.00001013  0.66666667  0.08597623
   0.33334347  0.00000000  0.08597623
   0.33334347  0.33333333  0.08597623
   0.33334347  0.66666667  0.08597623
   0.66667680  0.00000000  0.08597623
   0.66667680  0.33333333  0.08597623
   0.66667680  0.66666667  0.08597623
   0.11421802  0.16666667  0.12182699
   0.11421802  0.50000000  0.12182699
   0.11421802  0.83333333  0.12182699
   0.44755135  0.16666667  0.12182699
   0.44755135  0.50000000  0.12182699
   0.44755135  0.83333333  0.12182699
   0.78088468  0.16666667  0.12182699
   0.78088468  0.50000000  0.12182699
   0.78088468  0.83333333  0.12182699
 
 position of ions in cartesian coordinates  (Angst):
   3.66119709  2.11239884  1.50590334
   3.66119709  6.33719651  1.50590334
   3.66119709 10.56199419  1.50590334
   9.23112021  2.11239884  1.50590334
   9.23112021  6.33719651  1.50590334
   9.23112021 10.56199419  1.50590334
  14.80104334  2.11239884  1.50590334
  14.80104334  6.33719651  1.50590334
  14.80104334 10.56199419  1.50590334
   0.00016933  0.00000000  2.57928688
   0.00016933  4.22479767  2.57928688
   0.00016933  8.44959535  2.57928688
   5.57009246  0.00000000  2.57928688
   5.57009246  4.22479767  2.57928688
   5.57009246  8.44959535  2.57928688
  11.14001558  0.00000000  2.57928688
  11.14001558  4.22479767  2.57928688
  11.14001558  8.44959535  2.57928688
   1.90855671  2.11239884  3.65480978
   1.90855671  6.33719651  3.65480978
   1.90855671 10.56199419  3.65480978
   7.47847983  2.11239884  3.65480978
   7.47847983  6.33719651  3.65480978
   7.47847983 10.56199419  3.65480978
  13.04840296  2.11239884  3.65480978
  13.04840296  6.33719651  3.65480978
  13.04840296 10.56199419  3.65480978
 


--------------------------------------------------------------------------------------------------------


 k-point  1 :   0.0000 0.0000 0.0000  plane waves:  161391
 k-point  2 :   0.2000 0.0000 0.0000  plane waves:  161323
 k-point  3 :   0.4000 0.0000 0.0000  plane waves:  161285
 k-point  4 :   0.0000 0.2500 0.0000  plane waves:  161352
 k-point  5 :   0.2000 0.2500 0.0000  plane waves:  161322
 k-point  6 :   0.4000 0.2500 0.0000  plane waves:  161278
 k-point  7 :   0.0000 0.5000 0.0000  plane waves:  161302
 k-point  8 :   0.2000 0.5000 0.0000  plane waves:  161410
 k-point  9 :   0.4000 0.5000 0.0000  plane waves:  161314

 maximum and minimum number of plane-waves per node :     13492    13388

 maximum number of plane-waves:    161410
 maximum index in each direction: 
   IXMAX=   30   IYMAX=   23   IZMAX=   54
   IXMIN=  -30   IYMIN=  -23   IZMIN=  -54

 NGX is ok and might be reduce to 122
 NGY is ok and might be reduce to  94
 NGZ is ok and might be reduce to 218

 real space projection operators:
  total allocation   :      11666.18 KBytes
  max/ min on nodes  :       1026.19        925.64


 parallel 3D FFT for wavefunctions:
    minimum data exchange during FFTs selected (reduces bandwidth)
 parallel 3D FFT for charge:
    minimum data exchange during FFTs selected (reduces bandwidth)


 total amount of memory used by VASP on root node   222017. kBytes
========================================================================

   base      :      30000. kBytes
   nonlr-proj:       3284. kBytes
   fftplans  :      38536. kBytes
   grid      :      55030. kBytes
   one-center:         24. kBytes
   wavefun   :      95143. kBytes
 
     INWAV:  cpu time    0.00: real time    0.00
 Broyden mixing: mesh for mixing (old mesh)
   NGX = 61   NGY = 47   NGZ =109
  (NGX  =252   NGY  =192   NGZ  =448)
  gives a total of 312503 points

 initial charge density was supplied:
 charge density of overlapping atoms calculated
 number of electron     162.0000000 magnetization 
 keeping initial charge density in first step


--------------------------------------------------------------------------------------------------------


 Maximum index for non-local projection operator          524
 Maximum index for augmentation-charges         1566 (set IRDMAX)


--------------------------------------------------------------------------------------------------------


 First call to EWALD:  gamma=   0.096
 Maximum number of real-space cells 3x 4x 2
 Maximum number of reciprocal cells 3x 2x 4

 FEWALD executed in parallel
    FEWALD:  cpu time    0.00: real time    0.08


----------------------------------------- Iteration    1(   1)  ---------------------------------------


vdW kernel read from vdw_kernel.bindat
  0.0000  0.2424  0.5071  0.7962  1.1119  1.4567  1.8333  2.2446  2.6937  3.1842
  3.7199  4.3049  4.9438  5.6415  6.4036  7.2358  8.1446  9.1372 10.2212 11.4050
 12.6979 14.1099 15.6519 17.3360 19.1751 21.1837 23.3773 25.7729 28.3892 31.2465
 34.3669 37.7748 41.4965 45.5611 50.0000
 
    POTLOK:  cpu time   37.34: real time   40.06
    SETDIJ:  cpu time    0.03: real time    0.06
     EDDAV:  cpu time   50.62: real time   63.27
       DOS:  cpu time    0.00: real time    0.03
    --------------------------------------------
      LOOP:  cpu time   87.99: real time  103.44

 eigenvalue-minimisations  :  1804
 total energy-change (2. order) : 0.1256394E+04  (-0.3739235E+04)
 number of electron     162.0000000 magnetization 
 augmentation part      162.0000000 magnetization 

 Free energy of the ion-electron system (eV)
  ---------------------------------------------------
  alpha Z        PSCENC =         2.98004377
  Ewald energy   TEWEN  =     16365.03764973
  -Hartree energ DENC   =    -21345.86402445
  -exchange      EXHF   =         0.00000000
  -V(xc)+E(xc)   XCENC  =      -787.41291473
  PAW double counting   =      5895.77676336    -4806.95653459
  entropy T*S    EENTRO =        -0.13631301
  eigenvalues    EBANDS =      -159.48779152
  atomic energy  EATOM  =      6092.45717940
  ---------------------------------------------------
  free energy    TOTEN  =      1256.39405796 eV

  energy without entropy =     1256.53037097  energy(sigma->0) =     1256.46221447


--------------------------------------------------------------------------------------------------------




----------------------------------------- Iteration    1(   2)  ---------------------------------------


     EDDAV:  cpu time   70.82: real time   82.61
       DOS:  cpu time    0.00: real time    0.01
    --------------------------------------------
      LOOP:  cpu time   70.83: real time   82.65

 eigenvalue-minimisations  :  2808
 total energy-change (2. order) :-0.1018717E+04  (-0.9845275E+03)
 number of electron     162.0000000 magnetization 
 augmentation part      162.0000000 magnetization 

 Free energy of the ion-electron system (eV)
  ---------------------------------------------------
  alpha Z        PSCENC =         2.98004377
  Ewald energy   TEWEN  =     16365.03764973
  -Hartree energ DENC   =    -21345.86402445
  -exchange      EXHF   =         0.00000000
  -V(xc)+E(xc)   XCENC  =      -787.41291473
  PAW double counting   =      5895.77676336    -4806.95653459
  entropy T*S    EENTRO =        -0.02084076
  eigenvalues    EBANDS =     -1178.31992810
  atomic energy  EATOM  =      6092.45717940
  ---------------------------------------------------
  free energy    TOTEN  =       237.67739363 eV

  energy without entropy =      237.69823440  energy(sigma->0) =      237.68781401


--------------------------------------------------------------------------------------------------------




----------------------------------------- Iteration    1(   3)  ---------------------------------------


     EDDAV:  cpu time   56.76: real time   65.80
       DOS:  cpu time    0.00: real time    0.01
    --------------------------------------------
      LOOP:  cpu time   56.76: real time   65.84

 eigenvalue-minimisations  :  2120
 total energy-change (2. order) :-0.2505414E+03  (-0.2494545E+03)
 number of electron     162.0000000 magnetization 
 augmentation part      162.0000000 magnetization 

 Free energy of the ion-electron system (eV)
  ---------------------------------------------------
  alpha Z        PSCENC =         2.98004377
  Ewald energy   TEWEN  =     16365.03764973
  -Hartree energ DENC   =    -21345.86402445
  -exchange      EXHF   =         0.00000000
  -V(xc)+E(xc)   XCENC  =      -787.41291473
  PAW double counting   =      5895.77676336    -4806.95653459
  entropy T*S    EENTRO =        -0.00000000
  eigenvalues    EBANDS =     -1428.88215434
  atomic energy  EATOM  =      6092.45717940
  ---------------------------------------------------
  free energy    TOTEN  =       -12.86399185 eV

  energy without entropy =      -12.86399185  energy(sigma->0) =      -12.86399185


--------------------------------------------------------------------------------------------------------




----------------------------------------- Iteration    1(   4)  ---------------------------------------


     EDDAV:  cpu time   54.25: real time   58.17
       DOS:  cpu time    0.00: real time    0.01
    --------------------------------------------
      LOOP:  cpu time   54.26: real time   58.21

 eigenvalue-minimisations  :  2024
 total energy-change (2. order) :-0.1352425E+02  (-0.1338276E+02)
 number of electron     162.0000000 magnetization 
 augmentation part      162.0000000 magnetization 

 Free energy of the ion-electron system (eV)
  ---------------------------------------------------
  alpha Z        PSCENC =         2.98004377
  Ewald energy   TEWEN  =     16365.03764973
  -Hartree energ DENC   =    -21345.86402445
  -exchange      EXHF   =         0.00000000
  -V(xc)+E(xc)   XCENC  =      -787.41291473
  PAW double counting   =      5895.77676336    -4806.95653459
  entropy T*S    EENTRO =        -0.00000000
  eigenvalues    EBANDS =     -1442.40640168
  atomic energy  EATOM  =      6092.45717940
  ---------------------------------------------------
  free energy    TOTEN  =       -26.38823919 eV

  energy without entropy =      -26.38823919  energy(sigma->0) =      -26.38823919


--------------------------------------------------------------------------------------------------------




----------------------------------------- Iteration    1(   5)  ---------------------------------------


     EDDAV:  cpu time   69.29: real time   79.22
       DOS:  cpu time    0.00: real time    0.01
    CHARGE:  cpu time    5.71: real time    5.74
    MIXING:  cpu time    0.02: real time    0.04
    --------------------------------------------
      LOOP:  cpu time   75.03: real time   85.06

 eigenvalue-minimisations  :  2744
 total energy-change (2. order) :-0.5861736E+00  (-0.5835515E+00)
 number of electron     161.9999992 magnetization 
 augmentation part      -32.2997103 magnetization 

 Broyden mixing:
  rms(total) = 0.30138E+01    rms(broyden)= 0.30138E+01
  rms(prec ) = 0.30181E+01
  weight for this iteration     100.00

 Free energy of the ion-electron system (eV)
  ---------------------------------------------------
  alpha Z        PSCENC =         2.98004377
  Ewald energy   TEWEN  =     16365.03764973
  -Hartree energ DENC   =    -21345.86402445
  -exchange      EXHF   =         0.00000000
  -V(xc)+E(xc)   XCENC  =      -787.41291473
  PAW double counting   =      5895.77676336    -4806.95653459
  entropy T*S    EENTRO =        -0.00000000
  eigenvalues    EBANDS =     -1442.99257525
  atomic energy  EATOM  =      6092.45717940
  ---------------------------------------------------
  free energy    TOTEN  =       -26.97441275 eV

  energy without entropy =      -26.97441275  energy(sigma->0) =      -26.97441275


--------------------------------------------------------------------------------------------------------




----------------------------------------- Iteration    1(   6)  ---------------------------------------


    POTLOK:  cpu time   36.86: real time   37.91
    SETDIJ:  cpu time    0.03: real time    0.06
     EDDAV:  cpu time   55.87: real time   63.50
       DOS:  cpu time    0.00: real time    0.01
    CHARGE:  cpu time    5.64: real time    5.70
    MIXING:  cpu time    0.03: real time    0.05
    --------------------------------------------
      LOOP:  cpu time   98.44: real time  107.26

 eigenvalue-minimisations  :  2128
 total energy-change (2. order) : 0.6032871E+00  (-0.4331892E-01)
 number of electron     161.9999992 magnetization 
 augmentation part      -32.2723824 magnetization 

 Broyden mixing:
  rms(total) = 0.18408E+01    rms(broyden)= 0.18408E+01
  rms(prec ) = 0.18434E+01
  weight for this iteration     100.00

 eigenvalues of (default mixing * dielectric matrix)
  average eigenvalue GAMMA=   2.5534
  2.5534

 Free energy of the ion-electron system (eV)
  ---------------------------------------------------
  alpha Z        PSCENC =         2.98004377
  Ewald energy   TEWEN  =     16365.03764973
  -Hartree energ DENC   =    -21356.91150413
  -exchange      EXHF   =         0.00000000
  -V(xc)+E(xc)   XCENC  =      -786.19200666
  PAW double counting   =      8065.16948982    -6977.23603630
  entropy T*S    EENTRO =        -0.00000000
  eigenvalues    EBANDS =     -1431.67594127
  atomic energy  EATOM  =      6092.45717940
  ---------------------------------------------------
  free energy    TOTEN  =       -26.37112564 eV

  energy without entropy =      -26.37112564  energy(sigma->0) =      -26.37112564


--------------------------------------------------------------------------------------------------------




----------------------------------------- Iteration    1(   7)  ---------------------------------------


    POTLOK:  cpu time   36.53: real time   37.97
    SETDIJ:  cpu time    0.01: real time    0.06
     EDDAV:  cpu time   55.39: real time   62.15
       DOS:  cpu time    0.00: real time    0.01
    CHARGE:  cpu time    5.79: real time    6.82
    MIXING:  cpu time    0.03: real time    0.07
    --------------------------------------------
      LOOP:  cpu time   97.75: real time  107.19

 eigenvalue-minimisations  :  2088
 total energy-change (2. order) : 0.4029881E+00  (-0.6332672E-01)
 number of electron     161.9999992 magnetization 
 augmentation part      -32.2193231 magnetization 

 Broyden mixing:
  rms(total) = 0.63804E-01    rms(broyden)= 0.63804E-01
  rms(prec ) = 0.66222E-01
  weight for this iteration     100.00

 eigenvalues of (default mixing * dielectric matrix)
  average eigenvalue GAMMA=   1.7948
  1.0580  2.5316

 Free energy of the ion-electron system (eV)
  ---------------------------------------------------
  alpha Z        PSCENC =         2.98004377
  Ewald energy   TEWEN  =     16365.03764973
  -Hartree energ DENC   =    -21378.33616539
  -exchange      EXHF   =         0.00000000
  -V(xc)+E(xc)   XCENC  =      -784.04523766
  PAW double counting   =     12485.52388488   -11398.78114670
  entropy T*S    EENTRO =        -0.00000000
  eigenvalues    EBANDS =     -1410.80434560
  atomic energy  EATOM  =      6092.45717940
  ---------------------------------------------------
  free energy    TOTEN  =       -25.96813755 eV

  energy without entropy =      -25.96813755  energy(sigma->0) =      -25.96813755


--------------------------------------------------------------------------------------------------------




----------------------------------------- Iteration    1(   8)  ---------------------------------------


    POTLOK:  cpu time   36.44: real time   38.05
    SETDIJ:  cpu time    0.03: real time    0.05
     EDDAV:  cpu time   57.87: real time   67.06
       DOS:  cpu time    0.00: real time    0.02
    CHARGE:  cpu time    5.59: real time    5.67
    MIXING:  cpu time    0.03: real time    0.05
    --------------------------------------------
      LOOP:  cpu time   99.96: real time  110.92

 eigenvalue-minimisations  :  2152
 total energy-change (2. order) :-0.3135703E-01  (-0.5689977E-02)
 number of electron     161.9999992 magnetization 
 augmentation part      -32.2246154 magnetization 

 Broyden mixing:
  rms(total) = 0.88601E-01    rms(broyden)= 0.88601E-01
  rms(prec ) = 0.89430E-01
  weight for this iteration     100.00

 eigenvalues of (default mixing * dielectric matrix)
  average eigenvalue GAMMA=   1.4847
  2.4253  1.0144  1.0144

 Free energy of the ion-electron system (eV)
  ---------------------------------------------------
  alpha Z        PSCENC =         2.98004377
  Ewald energy   TEWEN  =     16365.03764973
  -Hartree energ DENC   =    -21380.76373136
  -exchange      EXHF   =         0.00000000
  -V(xc)+E(xc)   XCENC  =      -784.05083031
  PAW double counting   =     12458.59480761   -11371.75376815
  entropy T*S    EENTRO =        -0.00000000
  eigenvalues    EBANDS =     -1408.50084527
  atomic energy  EATOM  =      6092.45717940
  ---------------------------------------------------
  free energy    TOTEN  =       -25.99949458 eV

  energy without entropy =      -25.99949458  energy(sigma->0) =      -25.99949458


--------------------------------------------------------------------------------------------------------




----------------------------------------- Iteration    1(   9)  ---------------------------------------


    POTLOK:  cpu time   36.88: real time   40.10
    SETDIJ:  cpu time    0.02: real time    0.09
     EDDAV:  cpu time   69.75: real time   77.44
       DOS:  cpu time    0.00: real time    0.01
    CHARGE:  cpu time    5.84: real time    6.77
    MIXING:  cpu time    0.03: real time    0.07
    --------------------------------------------
      LOOP:  cpu time  112.52: real time  124.53

 eigenvalue-minimisations  :  2768
 total energy-change (2. order) :-0.1226493E-01  (-0.5262676E-03)
 number of electron     161.9999992 magnetization 
 augmentation part      -32.2322686 magnetization 

 Broyden mixing:
  rms(total) = 0.52444E-01    rms(broyden)= 0.52444E-01
  rms(prec ) = 0.53466E-01
  weight for this iteration     100.00

 eigenvalues of (default mixing * dielectric matrix)
  average eigenvalue GAMMA=   1.7305
  2.2779  1.9131  1.9131  0.8178

 Free energy of the ion-electron system (eV)
  ---------------------------------------------------
  alpha Z        PSCENC =         2.98004377
  Ewald energy   TEWEN  =     16365.03764973
  -Hartree energ DENC   =    -21381.74690266
  -exchange      EXHF   =         0.00000000
  -V(xc)+E(xc)   XCENC  =      -784.07798294
  PAW double counting   =     12324.72352480   -11237.84025792
  entropy T*S    EENTRO =        -0.00000000
  eigenvalues    EBANDS =     -1407.54501370
  atomic energy  EATOM  =      6092.45717940
  ---------------------------------------------------
  free energy    TOTEN  =       -26.01175951 eV

  energy without entropy =      -26.01175951  energy(sigma->0) =      -26.01175951


--------------------------------------------------------------------------------------------------------




----------------------------------------- Iteration    1(  10)  ---------------------------------------


    POTLOK:  cpu time   36.75: real time   43.63
    SETDIJ:  cpu time    0.03: real time    0.05
     EDDAV:  cpu time   56.23: real time   72.57
       DOS:  cpu time    0.00: real time    0.18
    CHARGE:  cpu time    5.76: real time    8.07
    MIXING:  cpu time    0.03: real time    0.06
    --------------------------------------------
      LOOP:  cpu time   98.81: real time  124.72

 eigenvalue-minimisations  :  2112
 total energy-change (2. order) :-0.2278990E-01  (-0.2700812E-03)
 number of electron     161.9999992 magnetization 
 augmentation part      -32.2319061 magnetization 

 Broyden mixing:
  rms(total) = 0.34432E-01    rms(broyden)= 0.34432E-01
  rms(prec ) = 0.34994E-01
  weight for this iteration     100.00

 eigenvalues of (default mixing * dielectric matrix)
  average eigenvalue GAMMA=   1.6787
  2.6139  2.6139  1.3428  0.9113  0.9113

 Free energy of the ion-electron system (eV)
  ---------------------------------------------------
  alpha Z        PSCENC =         2.98004377
  Ewald energy   TEWEN  =     16365.03764973
  -Hartree energ DENC   =    -21385.83098209
  -exchange      EXHF   =         0.00000000
  -V(xc)+E(xc)   XCENC  =      -784.03473346
  PAW double counting   =     12242.53471168   -11155.61199878
  entropy T*S    EENTRO =        -0.00000000
  eigenvalues    EBANDS =     -1403.56641966
  atomic energy  EATOM  =      6092.45717940
  ---------------------------------------------------
  free energy    TOTEN  =       -26.03454941 eV

  energy without entropy =      -26.03454941  energy(sigma->0) =      -26.03454941


--------------------------------------------------------------------------------------------------------




----------------------------------------- Iteration    1(  11)  ---------------------------------------


    POTLOK:  cpu time   36.86: real time   45.19
    SETDIJ:  cpu time    0.02: real time    0.06
     EDDAV:  cpu time   58.06: real time   83.54
       DOS:  cpu time    0.01: real time    0.45
    CHARGE:  cpu time    5.77: real time    9.30
    MIXING:  cpu time    0.04: real time    0.14
    --------------------------------------------
      LOOP:  cpu time  100.76: real time  138.89

 eigenvalue-minimisations  :  2240
 total energy-change (2. order) :-0.5728119E-02  (-0.1302141E-03)
 number of electron     161.9999992 magnetization 
 augmentation part      -32.2326436 magnetization 

 Broyden mixing:
  rms(total) = 0.27727E-01    rms(broyden)= 0.27727E-01
  rms(prec ) = 0.28034E-01
  weight for this iteration     100.00

 eigenvalues of (default mixing * dielectric matrix)
  average eigenvalue GAMMA=   1.5379
  2.5570  2.5570  1.1521  1.1423  1.1423  0.6768

 Free energy of the ion-electron system (eV)
  ---------------------------------------------------
  alpha Z        PSCENC =         2.98004377
  Ewald energy   TEWEN  =     16365.03764973
  -Hartree energ DENC   =    -21388.43132354
  -exchange      EXHF   =         0.00000000
  -V(xc)+E(xc)   XCENC  =      -783.98205218
  PAW double counting   =     12273.15695578   -11186.21738588
  entropy T*S    EENTRO =        -0.00000000
  eigenvalues    EBANDS =     -1401.04134461
  atomic energy  EATOM  =      6092.45717940
  ---------------------------------------------------
  free energy    TOTEN  =       -26.04027753 eV

  energy without entropy =      -26.04027753  energy(sigma->0) =      -26.04027753


--------------------------------------------------------------------------------------------------------




----------------------------------------- Iteration    1(  12)  ---------------------------------------


    POTLOK:  cpu time   36.73: real time   44.69
    SETDIJ:  cpu time    0.03: real time    0.61
     EDDAV:  cpu time   57.89: real time   91.29
       DOS:  cpu time    0.00: real time    0.02
    CHARGE:  cpu time    5.81: real time    7.45
    MIXING:  cpu time    0.07: real time    0.13
    --------------------------------------------
      LOOP:  cpu time  100.54: real time  144.35

 eigenvalue-minimisations  :  2136
 total energy-change (2. order) : 0.2540243E-02  (-0.1054139E-04)
 number of electron     161.9999992 magnetization 
 augmentation part      -32.2328586 magnetization 

 Broyden mixing:
  rms(total) = 0.12410E-01    rms(broyden)= 0.12410E-01
  rms(prec ) = 0.12964E-01
  weight for this iteration     100.00

 eigenvalues of (default mixing * dielectric matrix)
  average eigenvalue GAMMA=   1.6710
  2.6840  2.4444  1.8824  1.8824  0.9343  0.9347  0.9347

 Free energy of the ion-electron system (eV)
  ---------------------------------------------------
  alpha Z        PSCENC =         2.98004377
  Ewald energy   TEWEN  =     16365.03764973
  -Hartree energ DENC   =    -21389.03593669
  -exchange      EXHF   =         0.00000000
  -V(xc)+E(xc)   XCENC  =      -783.96799630
  PAW double counting   =     12300.23471147   -11213.29435262
  entropy T*S    EENTRO =        -0.00000000
  eigenvalues    EBANDS =     -1400.44903606
  atomic energy  EATOM  =      6092.45717940
  ---------------------------------------------------
  free energy    TOTEN  =       -26.03773729 eV

  energy without entropy =      -26.03773729  energy(sigma->0) =      -26.03773729


--------------------------------------------------------------------------------------------------------




----------------------------------------- Iteration    1(  13)  ---------------------------------------


    POTLOK:  cpu time   36.89: real time   43.42
    SETDIJ:  cpu time    0.04: real time    0.05
     EDDAV:  cpu time   56.60: real time   70.85
       DOS:  cpu time    0.00: real time    0.00
    CHARGE:  cpu time    5.87: real time    6.70
    MIXING:  cpu time    0.03: real time    0.06
    --------------------------------------------
      LOOP:  cpu time   99.44: real time  121.20

 eigenvalue-minimisations  :  2128
 total energy-change (2. order) : 0.2502956E-02  (-0.4420441E-04)
 number of electron     161.9999992 magnetization 
 augmentation part      -32.2318040 magnetization 

 Broyden mixing:
  rms(total) = 0.16050E-01    rms(broyden)= 0.16050E-01
  rms(prec ) = 0.16209E-01
  weight for this iteration     100.00

 eigenvalues of (default mixing * dielectric matrix)
  average eigenvalue GAMMA=   1.6999
  3.4509  2.6268  2.0414  1.3209  1.3209  0.9804  0.9804  0.8778

 Free energy of the ion-electron system (eV)
  ---------------------------------------------------
  alpha Z        PSCENC =         2.98004377
  Ewald energy   TEWEN  =     16365.03764973
  -Hartree energ DENC   =    -21391.45183243
  -exchange      EXHF   =         0.00000000
  -V(xc)+E(xc)   XCENC  =      -783.92964288
  PAW double counting   =     12339.07801867   -11252.13278042
  entropy T*S    EENTRO =        -0.00000000
  eigenvalues    EBANDS =     -1398.07387018
  atomic energy  EATOM  =      6092.45717940
  ---------------------------------------------------
  free energy    TOTEN  =       -26.03523433 eV

  energy without entropy =      -26.03523433  energy(sigma->0) =      -26.03523433


--------------------------------------------------------------------------------------------------------




----------------------------------------- Iteration    1(  14)  ---------------------------------------


    POTLOK:  cpu time   36.94: real time   40.93
    SETDIJ:  cpu time    0.04: real time    0.06
     EDDAV:  cpu time   56.27: real time   70.30
       DOS:  cpu time    0.00: real time    0.01
    CHARGE:  cpu time    5.76: real time    6.59
    MIXING:  cpu time    0.03: real time    0.07
    --------------------------------------------
      LOOP:  cpu time   99.06: real time  118.03

 eigenvalue-minimisations  :  2080
 total energy-change (2. order) :-0.2454034E-02  (-0.2700287E-04)
 number of electron     161.9999992 magnetization 
 augmentation part      -32.2306422 magnetization 

 Broyden mixing:
  rms(total) = 0.11731E-01    rms(broyden)= 0.11731E-01
  rms(prec ) = 0.11807E-01
  weight for this iteration     100.00

 eigenvalues of (default mixing * dielectric matrix)
  average eigenvalue GAMMA=   1.5937
  3.4012  2.5582  2.1685  1.3174  1.3174  1.1243  0.8667  0.8667  0.7230

 Free energy of the ion-electron system (eV)
  ---------------------------------------------------
  alpha Z        PSCENC =         2.98004377
  Ewald energy   TEWEN  =     16365.03764973
  -Hartree energ DENC   =    -21393.19202186
  -exchange      EXHF   =         0.00000000
  -V(xc)+E(xc)   XCENC  =      -783.91454377
  PAW double counting   =     12325.85512744   -11238.90703207
  entropy T*S    EENTRO =        -0.00000000
  eigenvalues    EBANDS =     -1396.35409101
  atomic energy  EATOM  =      6092.45717940
  ---------------------------------------------------
  free energy    TOTEN  =       -26.03768837 eV

  energy without entropy =      -26.03768837  energy(sigma->0) =      -26.03768837


--------------------------------------------------------------------------------------------------------




----------------------------------------- Iteration    1(  15)  ---------------------------------------


    POTLOK:  cpu time   36.80: real time   41.00
    SETDIJ:  cpu time    0.03: real time    0.05
     EDDAV:  cpu time   55.90: real time   71.63
       DOS:  cpu time    0.00: real time    0.01
    CHARGE:  cpu time    5.76: real time    6.55
    MIXING:  cpu time    0.03: real time    0.06
    --------------------------------------------
      LOOP:  cpu time   98.53: real time  119.36

 eigenvalue-minimisations  :  2056
 total energy-change (2. order) :-0.7724201E-03  (-0.5167476E-05)
 number of electron     161.9999992 magnetization 
 augmentation part      -32.2303144 magnetization 

 Broyden mixing:
  rms(total) = 0.28094E-02    rms(broyden)= 0.28094E-02
  rms(prec ) = 0.30205E-02
  weight for this iteration     100.00

 eigenvalues of (default mixing * dielectric matrix)
  average eigenvalue GAMMA=   1.7811
  3.9039  2.6119  2.6119  1.6522  1.6522  1.4633  1.0436  1.0436  0.9599  0.8684

 Free energy of the ion-electron system (eV)
  ---------------------------------------------------
  alpha Z        PSCENC =         2.98004377
  Ewald energy   TEWEN  =     16365.03764973
  -Hartree energ DENC   =    -21393.55098431
  -exchange      EXHF   =         0.00000000
  -V(xc)+E(xc)   XCENC  =      -783.91441606
  PAW double counting   =     12312.87510953   -11225.92862026
  entropy T*S    EENTRO =        -0.00000000
  eigenvalues    EBANDS =     -1395.99442259
  atomic energy  EATOM  =      6092.45717940
  ---------------------------------------------------
  free energy    TOTEN  =       -26.03846079 eV

  energy without entropy =      -26.03846079  energy(sigma->0) =      -26.03846079


--------------------------------------------------------------------------------------------------------




----------------------------------------- Iteration    1(  16)  ---------------------------------------


    POTLOK:  cpu time   36.90: real time   45.54
    SETDIJ:  cpu time    0.04: real time    0.07
     EDDAV:  cpu time   53.59: real time   67.93
       DOS:  cpu time    0.00: real time    0.01
    CHARGE:  cpu time    5.82: real time    7.15
    MIXING:  cpu time    0.03: real time    0.07
    --------------------------------------------
      LOOP:  cpu time   96.39: real time  121.27

 eigenvalue-minimisations  :  1944
 total energy-change (2. order) :-0.1361115E-02  (-0.7921811E-04)
 number of electron     161.9999992 magnetization 
 augmentation part      -32.2297701 magnetization 

 Broyden mixing:
  rms(total) = 0.58648E-02    rms(broyden)= 0.58648E-02
  rms(prec ) = 0.58870E-02
  weight for this iteration     100.00

 eigenvalues of (default mixing * dielectric matrix)
  average eigenvalue GAMMA=   1.8301
  5.1543  2.6486  2.6486  1.5578  1.5578  1.6165  0.9840  0.9840  1.1579  0.9850
  0.8368

 Free energy of the ion-electron system (eV)
  ---------------------------------------------------
  alpha Z        PSCENC =         2.98004377
  Ewald energy   TEWEN  =     16365.03764973
  -Hartree energ DENC   =    -21394.72723202
  -exchange      EXHF   =         0.00000000
  -V(xc)+E(xc)   XCENC  =      -783.90838706
  PAW double counting   =     12303.12658898   -11216.17961506
  entropy T*S    EENTRO =        -0.00000000
  eigenvalues    EBANDS =     -1394.82604965
  atomic energy  EATOM  =      6092.45717940
  ---------------------------------------------------
  free energy    TOTEN  =       -26.03982190 eV

  energy without entropy =      -26.03982190  energy(sigma->0) =      -26.03982190


--------------------------------------------------------------------------------------------------------




----------------------------------------- Iteration    1(  17)  ---------------------------------------


    POTLOK:  cpu time   36.73: real time   41.19
    SETDIJ:  cpu time    0.02: real time    0.05
     EDDAV:  cpu time   53.90: real time   61.58
       DOS:  cpu time    0.00: real time    0.01
    CHARGE:  cpu time    5.78: real time    6.32
    MIXING:  cpu time    0.03: real time    0.07
    --------------------------------------------
      LOOP:  cpu time   96.46: real time  109.24

 eigenvalue-minimisations  :  2032
 total energy-change (2. order) : 0.1419398E-03  (-0.3504184E-04)
 number of electron     161.9999992 magnetization 
 augmentation part      -32.2296843 magnetization 

 Broyden mixing:
  rms(total) = 0.35983E-02    rms(broyden)= 0.35983E-02
  rms(prec ) = 0.36146E-02
  weight for this iteration     100.00

 eigenvalues of (default mixing * dielectric matrix)
  average eigenvalue GAMMA=   1.7791
  5.3619  2.5394  2.5394  1.5623  1.5623  1.4822  1.4822  1.0752  1.0752  0.9598
  0.8545  0.8545

 Free energy of the ion-electron system (eV)
  ---------------------------------------------------
  alpha Z        PSCENC =         2.98004377
  Ewald energy   TEWEN  =     16365.03764973
  -Hartree energ DENC   =    -21395.14043353
  -exchange      EXHF   =         0.00000000
  -V(xc)+E(xc)   XCENC  =      -783.90424093
  PAW double counting   =     12306.60331464   -11219.65524299
  entropy T*S    EENTRO =        -0.00000000
  eigenvalues    EBANDS =     -1394.41795006
  atomic energy  EATOM  =      6092.45717940
  ---------------------------------------------------
  free energy    TOTEN  =       -26.03967996 eV

  energy without entropy =      -26.03967996  energy(sigma->0) =      -26.03967996


--------------------------------------------------------------------------------------------------------




----------------------------------------- Iteration    1(  18)  ---------------------------------------


    POTLOK:  cpu time   36.66: real time   41.12
    SETDIJ:  cpu time    0.03: real time    0.05
     EDDAV:  cpu time   50.51: real time   59.26
       DOS:  cpu time    0.00: real time    0.01
    CHARGE:  cpu time    5.62: real time    5.77
    MIXING:  cpu time    0.03: real time    0.04
    --------------------------------------------
      LOOP:  cpu time   92.86: real time  106.28

 eigenvalue-minimisations  :  1840
 total energy-change (2. order) : 0.1848013E-03  (-0.6531995E-05)
 number of electron     161.9999992 magnetization 
 augmentation part      -32.2297160 magnetization 

 Broyden mixing:
  rms(total) = 0.11317E-02    rms(broyden)= 0.11317E-02
  rms(prec ) = 0.11589E-02
  weight for this iteration     100.00

 eigenvalues of (default mixing * dielectric matrix)
  average eigenvalue GAMMA=   1.9960
  7.2990  3.1113  2.4626  2.0619  1.6402  1.6402  1.6319  1.1277  1.1277  1.0170
  1.0170  0.9766  0.8353

 Free energy of the ion-electron system (eV)
  ---------------------------------------------------
  alpha Z        PSCENC =         2.98004377
  Ewald energy   TEWEN  =     16365.03764973
  -Hartree energ DENC   =    -21395.33346988
  -exchange      EXHF   =         0.00000000
  -V(xc)+E(xc)   XCENC  =      -783.90174597
  PAW double counting   =     12309.83915215   -11222.89032076
  entropy T*S    EENTRO =        -0.00000000
  eigenvalues    EBANDS =     -1394.22798360
  atomic energy  EATOM  =      6092.45717940
  ---------------------------------------------------
  free energy    TOTEN  =       -26.03949516 eV

  energy without entropy =      -26.03949516  energy(sigma->0) =      -26.03949516


--------------------------------------------------------------------------------------------------------




----------------------------------------- Iteration    1(  19)  ---------------------------------------


    POTLOK:  cpu time   36.78: real time   39.68
    SETDIJ:  cpu time    0.04: real time    0.06
     EDDAV:  cpu time   48.70: real time   57.37
       DOS:  cpu time    0.00: real time    0.02
    CHARGE:  cpu time    5.66: real time    6.54
    MIXING:  cpu time    0.03: real time    0.06
    --------------------------------------------
      LOOP:  cpu time   91.22: real time  103.75

 eigenvalue-minimisations  :  1736
 total energy-change (2. order) : 0.1532146E-03  (-0.1656558E-04)
 number of electron     161.9999992 magnetization 
 augmentation part      -32.2296794 magnetization 

 Broyden mixing:
  rms(total) = 0.61699E-03    rms(broyden)= 0.61699E-03
  rms(prec ) = 0.62981E-03
  weight for this iteration     100.00

 eigenvalues of (default mixing * dielectric matrix)
  average eigenvalue GAMMA=   2.0127
  7.6273  3.2292  2.4466  2.4466  1.5481  1.5481  1.5776  1.5776  1.1872  1.1872
  1.0140  1.0140  0.9318  0.8418

 Free energy of the ion-electron system (eV)
  ---------------------------------------------------
  alpha Z        PSCENC =         2.98004377
  Ewald energy   TEWEN  =     16365.03764973
  -Hartree energ DENC   =    -21395.59715635
  -exchange      EXHF   =         0.00000000
  -V(xc)+E(xc)   XCENC  =      -783.89993773
  PAW double counting   =     12310.47319721   -11223.52418558
  entropy T*S    EENTRO =        -0.00000000
  eigenvalues    EBANDS =     -1393.96613241
  atomic energy  EATOM  =      6092.45717940
  ---------------------------------------------------
  free energy    TOTEN  =       -26.03934195 eV

  energy without entropy =      -26.03934195  energy(sigma->0) =      -26.03934195


--------------------------------------------------------------------------------------------------------




----------------------------------------- Iteration    1(  20)  ---------------------------------------


    POTLOK:  cpu time   36.86: real time   38.82
    SETDIJ:  cpu time    0.03: real time    0.05
     EDDAV:  cpu time   47.31: real time   51.86
       DOS:  cpu time    0.00: real time    0.02
    CHARGE:  cpu time    5.73: real time    5.76
    MIXING:  cpu time    0.03: real time    0.05
    --------------------------------------------
      LOOP:  cpu time   89.98: real time   96.61

 eigenvalue-minimisations  :  1696
 total energy-change (2. order) :-0.9787263E-04  (-0.2387696E-05)
 number of electron     161.9999992 magnetization 
 augmentation part      -32.2297055 magnetization 

 Broyden mixing:
  rms(total) = 0.54782E-03    rms(broyden)= 0.54782E-03
  rms(prec ) = 0.55434E-03
  weight for this iteration     100.00

 eigenvalues of (default mixing * dielectric matrix)
  average eigenvalue GAMMA=   2.1166
  8.2187  3.9561  2.7411  2.4871  2.1240  1.6360  1.6360  1.7224  1.3127  1.0711
  1.0711  1.0242  1.0242  0.8471  0.8776

 Free energy of the ion-electron system (eV)
  ---------------------------------------------------
  alpha Z        PSCENC =         2.98004377
  Ewald energy   TEWEN  =     16365.03764973
  -Hartree energ DENC   =    -21395.64038943
  -exchange      EXHF   =         0.00000000
  -V(xc)+E(xc)   XCENC  =      -783.89967334
  PAW double counting   =     12312.05887124   -11225.10974320
  entropy T*S    EENTRO =        -0.00000000
  eigenvalues    EBANDS =     -1393.92337799
  atomic energy  EATOM  =      6092.45717940
  ---------------------------------------------------
  free energy    TOTEN  =       -26.03943982 eV

  energy without entropy =      -26.03943982  energy(sigma->0) =      -26.03943982


--------------------------------------------------------------------------------------------------------




----------------------------------------- Iteration    1(  21)  ---------------------------------------


    POTLOK:  cpu time   36.76: real time   41.48
    SETDIJ:  cpu time    0.03: real time    0.06
     EDDAV:  cpu time   46.88: real time   52.12
       DOS:  cpu time    0.00: real time    0.01
    CHARGE:  cpu time    5.87: real time    6.68
    MIXING:  cpu time    0.03: real time    0.08
    --------------------------------------------
      LOOP:  cpu time   89.59: real time  100.47

 eigenvalue-minimisations  :  1656
 total energy-change (2. order) :-0.1793813E-03  (-0.1892753E-05)
 number of electron     161.9999992 magnetization 
 augmentation part      -32.2297055 magnetization 

 Broyden mixing:
  rms(total) = 0.63751E-03    rms(broyden)= 0.63751E-03
  rms(prec ) = 0.63909E-03
  weight for this iteration     100.00

 eigenvalues of (default mixing * dielectric matrix)
  average eigenvalue GAMMA=   2.1131
  8.3427  4.6043  2.8817  2.4719  2.1539  1.6538  1.6538  1.4767  1.4767  1.2157
  1.0303  1.0303  0.8379  1.0251  0.9774  0.9774

 Free energy of the ion-electron system (eV)
  ---------------------------------------------------
  alpha Z        PSCENC =         2.98004377
  Ewald energy   TEWEN  =     16365.03764973
  -Hartree energ DENC   =    -21395.69719594
  -exchange      EXHF   =         0.00000000
  -V(xc)+E(xc)   XCENC  =      -783.89949463
  PAW double counting   =     12312.30885516   -11225.35980610
  entropy T*S    EENTRO =        -0.00000000
  eigenvalues    EBANDS =     -1393.86685060
  atomic energy  EATOM  =      6092.45717940
  ---------------------------------------------------
  free energy    TOTEN  =       -26.03961920 eV

  energy without entropy =      -26.03961920  energy(sigma->0) =      -26.03961920


--------------------------------------------------------------------------------------------------------




----------------------------------------- Iteration    1(  22)  ---------------------------------------


    POTLOK:  cpu time   36.74: real time   38.28
    SETDIJ:  cpu time    0.03: real time    0.05
     EDDAV:  cpu time   46.70: real time   50.06
       DOS:  cpu time    0.01: real time    0.02
    CHARGE:  cpu time    5.76: real time    7.70
    MIXING:  cpu time    0.04: real time    0.08
    --------------------------------------------
      LOOP:  cpu time   89.29: real time   96.22

 eigenvalue-minimisations  :  1672
 total energy-change (2. order) :-0.7030055E-04  (-0.8419986E-06)
 number of electron     161.9999992 magnetization 
 augmentation part      -32.2296967 magnetization 

 Broyden mixing:
  rms(total) = 0.89285E-04    rms(broyden)= 0.89285E-04
  rms(prec ) = 0.94197E-04
  weight for this iteration     100.00

 eigenvalues of (default mixing * dielectric matrix)
  average eigenvalue GAMMA=   2.0877
  8.4487  4.6356  2.9247  2.5908  2.0011  1.6483  1.6483  1.7472  1.7472  1.4589
  1.0310  1.0310  1.0835  0.9365  0.9365  0.8130  0.8090

 Free energy of the ion-electron system (eV)
  ---------------------------------------------------
  alpha Z        PSCENC =         2.98004377
  Ewald energy   TEWEN  =     16365.03764973
  -Hartree energ DENC   =    -21395.71143326
  -exchange      EXHF   =         0.00000000
  -V(xc)+E(xc)   XCENC  =      -783.89964842
  PAW double counting   =     12311.39152460   -11224.44256243
  entropy T*S    EENTRO =        -0.00000000
  eigenvalues    EBANDS =     -1393.85244290
  atomic energy  EATOM  =      6092.45717940
  ---------------------------------------------------
  free energy    TOTEN  =       -26.03968950 eV

  energy without entropy =      -26.03968950  energy(sigma->0) =      -26.03968950


--------------------------------------------------------------------------------------------------------




----------------------------------------- Iteration    1(  23)  ---------------------------------------


    POTLOK:  cpu time   36.66: real time   39.04
    SETDIJ:  cpu time    0.02: real time    0.05
     EDDAV:  cpu time   47.16: real time   57.11
       DOS:  cpu time    0.00: real time    0.02
    CHARGE:  cpu time    5.87: real time    6.54
    MIXING:  cpu time    0.04: real time    0.07
    --------------------------------------------
      LOOP:  cpu time   89.76: real time  102.90

 eigenvalue-minimisations  :  1656
 total energy-change (2. order) :-0.1153858E-04  (-0.3514098E-06)
 number of electron     161.9999992 magnetization 
 augmentation part      -32.2296957 magnetization 

 Broyden mixing:
  rms(total) = 0.18113E-03    rms(broyden)= 0.18113E-03
  rms(prec ) = 0.18213E-03
  weight for this iteration     100.00

 eigenvalues of (default mixing * dielectric matrix)
  average eigenvalue GAMMA=   2.1905
  8.4500  5.7632  3.3862  2.7842  2.4333  2.1017  1.6509  1.6509  1.5908  1.5908
  1.2590  1.0560  1.0560  0.9768  0.9768  0.8454  0.8738  0.9833

 Free energy of the ion-electron system (eV)
  ---------------------------------------------------
  alpha Z        PSCENC =         2.98004377
  Ewald energy   TEWEN  =     16365.03764973
  -Hartree energ DENC   =    -21395.71607218
  -exchange      EXHF   =         0.00000000
  -V(xc)+E(xc)   XCENC  =      -783.89974371
  PAW double counting   =     12311.17733635   -11224.22837096
  entropy T*S    EENTRO =        -0.00000000
  eigenvalues    EBANDS =     -1393.84772345
  atomic energy  EATOM  =      6092.45717940
  ---------------------------------------------------
  free energy    TOTEN  =       -26.03970104 eV

  energy without entropy =      -26.03970104  energy(sigma->0) =      -26.03970104


--------------------------------------------------------------------------------------------------------




----------------------------------------- Iteration    1(  24)  ---------------------------------------


    POTLOK:  cpu time   37.05: real time   42.41
    SETDIJ:  cpu time    0.10: real time    0.11
     EDDAV:  cpu time   45.00: real time   49.63
       DOS:  cpu time    0.00: real time    0.02
    CHARGE:  cpu time    5.77: real time    5.81
    MIXING:  cpu time    0.04: real time    0.05
    --------------------------------------------
      LOOP:  cpu time   87.97: real time   98.08

 eigenvalue-minimisations  :  1576
 total energy-change (2. order) : 0.2573441E-04  (-0.5299438E-06)
 number of electron     161.9999992 magnetization 
 augmentation part      -32.2296981 magnetization 

 Broyden mixing:
  rms(total) = 0.96013E-04    rms(broyden)= 0.96013E-04
  rms(prec ) = 0.96489E-04
  weight for this iteration     100.00

 eigenvalues of (default mixing * dielectric matrix)
  average eigenvalue GAMMA=   2.2096
  8.3300  6.4493  3.5366  2.8131  2.2617  2.2617  1.9257  1.9257  1.6352  1.6352
  1.4289  1.0450  1.0450  1.1376  0.9635  0.9635  0.8414  0.8921  0.8921

 Free energy of the ion-electron system (eV)
  ---------------------------------------------------
  alpha Z        PSCENC =         2.98004377
  Ewald energy   TEWEN  =     16365.03764973
  -Hartree energ DENC   =    -21395.72264672
  -exchange      EXHF   =         0.00000000
  -V(xc)+E(xc)   XCENC  =      -783.89985071
  PAW double counting   =     12311.27116150   -11224.32215970
  entropy T*S    EENTRO =        -0.00000000
  eigenvalues    EBANDS =     -1393.84105259
  atomic energy  EATOM  =      6092.45717940
  ---------------------------------------------------
  free energy    TOTEN  =       -26.03967531 eV

  energy without entropy =      -26.03967531  energy(sigma->0) =      -26.03967531


--------------------------------------------------------------------------------------------------------




----------------------------------------- Iteration    1(  25)  ---------------------------------------


    POTLOK:  cpu time   36.85: real time   40.52
    SETDIJ:  cpu time    0.04: real time    0.06
     EDDAV:  cpu time   40.27: real time   45.60
       DOS:  cpu time    0.01: real time    0.02
    CHARGE:  cpu time    5.69: real time    6.24
    MIXING:  cpu time    0.03: real time    0.11
    --------------------------------------------
      LOOP:  cpu time   82.90: real time   92.59

 eigenvalue-minimisations  :  1352
 total energy-change (2. order) : 0.2807197E-05  (-0.8614668E-07)
 number of electron     161.9999992 magnetization 
 augmentation part      -32.2297024 magnetization 

 Broyden mixing:
  rms(total) = 0.96468E-04    rms(broyden)= 0.96468E-04
  rms(prec ) = 0.96646E-04
  weight for this iteration     100.00

 eigenvalues of (default mixing * dielectric matrix)
  average eigenvalue GAMMA=   2.3038
  8.1092  8.1092  4.0189  3.2411  2.6276  2.1638  2.1638  1.6477  1.6477  1.6380
  1.6380  1.0402  1.0402  1.1718  1.1718  0.9683  0.9683  0.8437  0.8937  0.9733

 Free energy of the ion-electron system (eV)
  ---------------------------------------------------
  alpha Z        PSCENC =         2.98004377
  Ewald energy   TEWEN  =     16365.03764973
  -Hartree energ DENC   =    -21395.72304496
  -exchange      EXHF   =         0.00000000
  -V(xc)+E(xc)   XCENC  =      -783.89990851
  PAW double counting   =     12311.49465569   -11224.54561885
  entropy T*S    EENTRO =        -0.00000000
  eigenvalues    EBANDS =     -1393.84062877
  atomic energy  EATOM  =      6092.45717940
  ---------------------------------------------------
  free energy    TOTEN  =       -26.03967250 eV

  energy without entropy =      -26.03967250  energy(sigma->0) =      -26.03967250


--------------------------------------------------------------------------------------------------------




----------------------------------------- Iteration    1(  26)  ---------------------------------------


    POTLOK:  cpu time   36.50: real time   39.28
    SETDIJ:  cpu time    0.02: real time    0.04
     EDDAV:  cpu time   39.78: real time   45.84
       DOS:  cpu time    0.00: real time    0.02
    CHARGE:  cpu time    5.73: real time    6.69
    MIXING:  cpu time    0.04: real time    0.07
    --------------------------------------------
      LOOP:  cpu time   82.07: real time   91.96

 eigenvalue-minimisations  :  1296
 total energy-change (2. order) : 0.3207225E-04  (-0.4877634E-07)
 number of electron     161.9999992 magnetization 
 augmentation part      -32.2297049 magnetization 

 Broyden mixing:
  rms(total) = 0.50844E-04    rms(broyden)= 0.50844E-04
  rms(prec ) = 0.50922E-04
  weight for this iteration     100.00

 eigenvalues of (default mixing * dielectric matrix)
  average eigenvalue GAMMA=   2.2511
  8.1539  8.1539  4.1023  3.0248  2.6096  2.1809  2.1809  1.6428  1.6428  1.7299
  1.7299  1.2738  1.0415  1.0415  1.0877  1.0877  0.9679  0.9679  0.8419  0.9057
  0.9057

 Free energy of the ion-electron system (eV)
  ---------------------------------------------------
  alpha Z        PSCENC =         2.98004377
  Ewald energy   TEWEN  =     16365.03764973
  -Hartree energ DENC   =    -21395.72498786
  -exchange      EXHF   =         0.00000000
  -V(xc)+E(xc)   XCENC  =      -783.89992328
  PAW double counting   =     12311.44954228   -11224.50051955
  entropy T*S    EENTRO =        -0.00000000
  eigenvalues    EBANDS =     -1393.83862493
  atomic energy  EATOM  =      6092.45717940
  ---------------------------------------------------
  free energy    TOTEN  =       -26.03964043 eV

  energy without entropy =      -26.03964043  energy(sigma->0) =      -26.03964043


--------------------------------------------------------------------------------------------------------




----------------------------------------- Iteration    1(  27)  ---------------------------------------


    POTLOK:  cpu time   36.82: real time   39.53
    SETDIJ:  cpu time    0.02: real time    0.05
     EDDAV:  cpu time   40.54: real time   48.67
       DOS:  cpu time    0.00: real time    0.01
    CHARGE:  cpu time    5.72: real time    6.67
    MIXING:  cpu time    0.04: real time    0.09
    --------------------------------------------
      LOOP:  cpu time   83.15: real time   95.07

 eigenvalue-minimisations  :  1360
 total energy-change (2. order) : 0.1362232E-05  (-0.1414945E-07)
 number of electron     161.9999992 magnetization 
 augmentation part      -32.2297040 magnetization 

 Broyden mixing:
  rms(total) = 0.14874E-04    rms(broyden)= 0.14874E-04
  rms(prec ) = 0.14978E-04
  weight for this iteration     100.00

 eigenvalues of (default mixing * dielectric matrix)
  average eigenvalue GAMMA=   2.3286
  8.5816  8.5816  4.7492  3.3455  2.8855  2.4969  1.6474  1.6474  1.9172  1.9172
  1.6414  1.6414  1.4351  1.0491  1.0491  1.1120  0.9668  0.9668  0.8433  0.8927
  0.9305  0.9305

 Free energy of the ion-electron system (eV)
  ---------------------------------------------------
  alpha Z        PSCENC =         2.98004377
  Ewald energy   TEWEN  =     16365.03764973
  -Hartree energ DENC   =    -21395.72649896
  -exchange      EXHF   =         0.00000000
  -V(xc)+E(xc)   XCENC  =      -783.89991515
  PAW double counting   =     12311.36477029   -11224.41575870
  entropy T*S    EENTRO =        -0.00000000
  eigenvalues    EBANDS =     -1393.83710946
  atomic energy  EATOM  =      6092.45717940
  ---------------------------------------------------
  free energy    TOTEN  =       -26.03963906 eV

  energy without entropy =      -26.03963906  energy(sigma->0) =      -26.03963906


--------------------------------------------------------------------------------------------------------




----------------------------------------- Iteration    1(  28)  ---------------------------------------


    POTLOK:  cpu time   36.69: real time   39.90
    SETDIJ:  cpu time    0.03: real time    0.05
     EDDAV:  cpu time   38.88: real time   46.45
       DOS:  cpu time    0.00: real time    0.02
    CHARGE:  cpu time    5.72: real time    6.86
    MIXING:  cpu time    0.04: real time    0.07
    --------------------------------------------
      LOOP:  cpu time   81.37: real time   93.40

 eigenvalue-minimisations  :  1264
 total energy-change (2. order) : 0.9155112E-05  (-0.3435305E-07)
 number of electron     161.9999992 magnetization 
 augmentation part      -32.2297034 magnetization 

 Broyden mixing:
  rms(total) = 0.71463E-05    rms(broyden)= 0.71463E-05
  rms(prec ) = 0.71836E-05
  weight for this iteration     100.00

 eigenvalues of (default mixing * dielectric matrix)
  average eigenvalue GAMMA=   2.3119
  8.7275  8.7275  4.9975  3.4079  2.8945  2.3048  2.0975  2.0975  1.6428  1.6428
  1.7315  1.7315  1.3824  1.0387  1.0387  0.9611  0.9611  1.0421  1.0421  1.0669
  0.8439  0.8973  0.8973

 Free energy of the ion-electron system (eV)
  ---------------------------------------------------
  alpha Z        PSCENC =         2.98004377
  Ewald energy   TEWEN  =     16365.03764973
  -Hartree energ DENC   =    -21395.72723122
  -exchange      EXHF   =         0.00000000
  -V(xc)+E(xc)   XCENC  =      -783.89990971
  PAW double counting   =     12311.36964726   -11224.42063552
  entropy T*S    EENTRO =        -0.00000000
  eigenvalues    EBANDS =     -1393.83637363
  atomic energy  EATOM  =      6092.45717940
  ---------------------------------------------------
  free energy    TOTEN  =       -26.03962991 eV

  energy without entropy =      -26.03962991  energy(sigma->0) =      -26.03962991


--------------------------------------------------------------------------------------------------------




----------------------------------------- Iteration    1(  29)  ---------------------------------------


    POTLOK:  cpu time   36.71: real time   38.87
    SETDIJ:  cpu time    0.01: real time    0.04
     EDDAV:  cpu time   39.95: real time   44.34
       DOS:  cpu time    0.00: real time    0.02
    CHARGE:  cpu time    5.66: real time    5.73
    MIXING:  cpu time    0.05: real time    0.07
    --------------------------------------------
      LOOP:  cpu time   82.39: real time   89.12

 eigenvalue-minimisations  :  1320
 total energy-change (2. order) : 0.3555272E-05  (-0.1603220E-07)
 number of electron     161.9999992 magnetization 
 augmentation part      -32.2297033 magnetization 

 Broyden mixing:
  rms(total) = 0.12723E-04    rms(broyden)= 0.12723E-04
  rms(prec ) = 0.12731E-04
  weight for this iteration     100.00

 eigenvalues of (default mixing * dielectric matrix)
  average eigenvalue GAMMA=   2.3042
[...]
     22     -13.1202      2.00000
     23     -13.1202      2.00000
     24     -12.5121      2.00000
     25     -12.5121      2.00000
     26     -12.2743      2.00000
     27     -12.2743      2.00000
     28      -8.1919      2.00000
     29      -7.9297      2.00000
     30      -7.6505      2.00000
     31      -7.6491      2.00000
     32      -7.5896      2.00000
     33      -7.4145      2.00000
     34      -7.3685      2.00000
     35      -7.3685      2.00000
     36      -7.2214      2.00000
     37      -7.2214      2.00000
     38      -7.1436      2.00000
     39      -7.1436      2.00000
     40      -7.0503      2.00000
     41      -7.0503      2.00000
     42      -6.9590      2.00000
     43      -6.9590      2.00000
     44      -6.7873      2.00000
     45      -6.7873      2.00000
     46      -6.6341      2.00000
     47      -6.4518      2.00000
     48      -6.4063      2.00000
     49      -6.4063      2.00000
     50      -6.3372      2.00000
     51      -6.3372      2.00000
     52      -6.1046      2.00000
     53      -6.0874      2.00000
     54      -6.0874      2.00000
     55      -5.6229      2.00000
     56      -5.3404      2.00000
     57      -5.2757      2.00000
     58      -5.2757      2.00000
     59      -5.2551      2.00000
     60      -5.2551      2.00000
     61      -5.1659      2.00000
     62      -4.9224      2.00000
     63      -4.9224      2.00000
     64      -4.8336      2.00000
     65      -4.5619      2.00000
     66      -4.5595      2.00000
     67      -4.5595      2.00000
     68      -4.5555      2.00000
     69      -4.3998      2.00000
     70      -4.3998      2.00000
     71      -4.3139      2.00000
     72      -4.3139      2.00000
     73      -4.2574      2.00000
     74      -4.2518      2.00000
     75      -4.0825      2.00000
     76      -3.8549      2.00000
     77      -3.8549      2.00000
     78      -3.7772      2.00000
     79      -3.7772      2.00000
     80      -3.6079      2.00000
     81      -3.6079      2.00000
     82      -2.1618      0.00000
     83      -2.1618      0.00000
     84      -2.1165      0.00000
     85      -2.1165      0.00000
     86      -2.0380      0.00000
     87      -2.0327      0.00000
     88      -1.9576      0.00000
     89      -1.9576      0.00000
     90      -1.9255      0.00000
     91      -1.9245      0.00000
     92      -1.9245      0.00000
     93      -1.8837      0.00000
     94      -1.8837      0.00000
     95      -1.7565      0.00000
     96      -1.7114      0.00000
     97      -1.6752      0.00000
     98      -1.6752      0.00000

 k-point     9 :       0.4000    0.5000    0.0000
  band No.  band energies     occupation 
      1     -16.1175      2.00000
      2     -16.1175      2.00000
      3     -16.0400      2.00000
      4     -16.0400      2.00000
      5     -15.4592      2.00000
      6     -15.4592      2.00000
      7     -15.3116      2.00000
      8     -15.2765      2.00000
      9     -15.2028      2.00000
     10     -15.2028      2.00000
     11     -15.1320      2.00000
     12     -14.2512      2.00000
     13     -14.2393      2.00000
     14     -14.2044      2.00000
     15     -14.2044      2.00000
     16     -14.1957      2.00000
     17     -13.9320      2.00000
     18     -13.9320      2.00000
     19     -13.4740      2.00000
     20     -13.2338      2.00000
     21     -13.1715      2.00000
     22     -12.8943      2.00000
     23     -12.8943      2.00000
     24     -12.6884      2.00000
     25     -12.6884      2.00000
     26     -12.2240      2.00000
     27     -12.2240      2.00000
     28      -8.2486      2.00000
     29      -7.7480      2.00000
     30      -7.6459      2.00000
     31      -7.6334      2.00000
     32      -7.6105      2.00000
     33      -7.5628      2.00000
     34      -7.4143      2.00000
     35      -7.4143      2.00000
     36      -7.2029      2.00000
     37      -7.2029      2.00000
     38      -7.1809      2.00000
     39      -7.1809      2.00000
     40      -6.9582      2.00000
     41      -6.9582      2.00000
     42      -6.8641      2.00000
     43      -6.8641      2.00000
     44      -6.8490      2.00000
     45      -6.8490      2.00000
     46      -6.6780      2.00000
     47      -6.4815      2.00000
     48      -6.4815      2.00000
     49      -6.3356      2.00000
     50      -6.2963      2.00000
     51      -6.2963      2.00000
     52      -6.2148      2.00000
     53      -6.1524      2.00000
     54      -6.1524      2.00000
     55      -5.4950      2.00000
     56      -5.3348      2.00000
     57      -5.2683      2.00000
     58      -5.2683      2.00000
     59      -5.2540      2.00000
     60      -5.2540      2.00000
     61      -5.1224      2.00000
     62      -4.8464      2.00000
     63      -4.7867      2.00000
     64      -4.7867      2.00000
     65      -4.7088      2.00000
     66      -4.6106      2.00000
     67      -4.6106      2.00000
     68      -4.5504      2.00000
     69      -4.5504      2.00000
     70      -4.4705      2.00000
     71      -4.3509      2.00000
     72      -4.3282      2.00000
     73      -4.1541      2.00000
     74      -4.1541      2.00000
     75      -3.9703      2.00000
     76      -3.9487      2.00000
     77      -3.9487      2.00000
     78      -3.7261      2.00000
     79      -3.7261      2.00000
     80      -3.6359      2.00000
     81      -3.6359      2.00000
     82      -2.2303      0.00000
     83      -2.2303      0.00000
     84      -2.0559      0.00000
     85      -2.0559      0.00000
     86      -2.0548      0.00000
     87      -2.0519      0.00000
     88      -1.9960      0.00000
     89      -1.9960      0.00000
     90      -1.8850      0.00000
     91      -1.8444      0.00000
     92      -1.8444      0.00000
     93      -1.8130      0.00000
     94      -1.8130      0.00000
     95      -1.7274      0.00000
     96      -1.7272      0.00000
     97      -1.6856      0.00000
     98      -1.6549      0.00000


--------------------------------------------------------------------------------------------------------


 soft charge-density along one line, spin component           1
         0         1         2         3         4         5         6         7         8         9
 total charge-density along one line
 
 pseudopotential strength for first ion, spin component:           1
 55.346  60.206  -0.000   0.065   0.000  -0.000   0.095   0.000
 60.206  65.496  -0.000   0.071   0.000  -0.000   0.103   0.000
 -0.000  -0.000  13.379   0.000   0.000  19.300   0.000   0.000
  0.065   0.071   0.000  13.390  -0.011   0.000  19.315  -0.016
  0.000   0.000   0.000  -0.011  13.390   0.000  -0.016  19.315
 -0.000  -0.000  19.300   0.000   0.000  27.851   0.000   0.000
  0.095   0.103   0.000  19.315  -0.016   0.000  27.872  -0.024
  0.000   0.000   0.000  -0.016  19.315   0.000  -0.024  27.872
  0.000   0.000  -0.000  -0.000  -0.000  -0.000  -0.000  -0.000
  0.000   0.000   0.013  -0.000  -0.000   0.019  -0.000  -0.000
  0.005   0.005   0.000   0.015   0.000   0.000   0.022   0.001
 -0.018  -0.020  -0.000   0.000   0.013  -0.000   0.001   0.018
  0.008   0.009   0.000  -0.000   0.000   0.000  -0.000   0.000
 total augmentation occupancy for first ion, spin component:           1
  5.638  -4.768  -0.000  -2.941   0.045   0.000   0.989  -0.013  -0.000  -0.000   0.000   0.080  -0.046
 -4.768   5.665   0.000   2.452  -0.045   0.000  -0.843   0.015   0.000   0.000   0.003  -0.083   0.046
  0.000  -0.000   2.759   0.000   0.000  -0.592   0.000   0.000   0.072   0.088  -0.000   0.000  -0.000
 -2.941   2.452   0.000   3.019  -0.226   0.000  -0.788   0.205  -0.000   0.000   0.080  -0.074   0.037
  0.045  -0.045  -0.000  -0.226   3.014   0.000   0.205  -0.803   0.000   0.000  -0.060   0.156  -0.038
 -0.000   0.000  -0.592   0.000   0.000   0.208   0.000   0.000  -0.024  -0.027  -0.000   0.000   0.000
  0.989  -0.843   0.000  -0.788   0.205   0.000   0.265  -0.076  -0.000   0.000  -0.025   0.024  -0.010
 -0.013   0.015   0.000   0.205  -0.803  -0.000  -0.076   0.288   0.000  -0.000   0.021  -0.050   0.015
 -0.000   0.000   0.072  -0.000   0.000  -0.024  -0.000   0.000   0.012   0.001  -0.000   0.000   0.000
 -0.000   0.000   0.088  -0.000   0.000  -0.027  -0.000   0.000   0.001   0.007   0.000   0.000  -0.000
  0.000   0.003  -0.000   0.080  -0.060  -0.000  -0.025   0.021  -0.000   0.000   0.009  -0.004  -0.000
  0.080  -0.083   0.000  -0.074   0.156   0.000   0.024  -0.050   0.000   0.000  -0.004   0.014  -0.005
 -0.046   0.046  -0.000   0.037  -0.038   0.000  -0.010   0.015   0.000  -0.000  -0.000  -0.005   0.006


------------------------ aborting loop because EDIFF is reached ----------------------------------------


    CHARGE:  cpu time    5.69: real time    5.71
    FORLOC:  cpu time    0.14: real time    0.14
    FORNL :  cpu time   16.36: real time   19.12
    STRESS:  cpu time   49.13: real time   51.67
    FORCOR:  cpu time   36.64: real time   39.92
    FORHAR:  cpu time    0.39: real time    0.40
    MIXING:  cpu time    0.04: real time    0.11
    OFIELD:  cpu time    0.00: real time    0.00

  FORCE on cell =-STRESS in cart. coord.  units (eV):
  Direction    XX          YY          ZZ          XY          YZ          ZX
  --------------------------------------------------------------------------------------
  Alpha Z     2.98004     2.98004     2.98004
  Ewald   20223.80878 20346.10797-24204.88957    -0.00000     0.00000   126.49450
  Hartree 21001.44359 21105.62343-20711.33931    -0.00000    -0.00000    66.32758
  E(xc)    -637.67034  -639.23671  -635.93857     0.00000    -0.00000     0.37166
  Local  -44214.62520-44478.76114 41852.10501     0.00000     0.00000  -208.52879
  n-local  2988.26914  3002.24839  3027.90352     0.23397    -0.07674     0.08500
  augment  -712.95829  -721.04143  -731.15310     0.00000     0.00000    -1.48512
  Kinetic  1348.98989  1382.34237  1400.36280     0.24763    -0.06471    16.71919
  Fock        0.00000     0.00000     0.00000     0.00000     0.00000     0.00000
  -------------------------------------------------------------------------------------
  Total       0.23761     0.26292     0.03082     0.00000     0.00000    -0.01598
  in kB       0.05992     0.06630     0.00777     0.00000     0.00000    -0.00403
  external pressure =        0.04 kB  Pullay stress =        0.00 kB


 VOLUME and BASIS-vectors are now :
 -----------------------------------------------------------------------------
  energy-cutoff  :      500.00
  volume of cell :     6353.59
      direct lattice vectors                 reciprocal lattice vectors
    16.709769375  0.000000000  0.000000000     0.059845231  0.000000000  0.000000000
     0.000000000 12.674393023  0.000000000     0.000000000  0.078899242  0.000000000
     0.000000000  0.000000000 30.000000000     0.000000000  0.000000000  0.033333333

  length of vectors
    16.709769375 12.674393023 30.000000000     0.059845231  0.078899242  0.033333333


 FORCES acting on ions
    electron-ion (+dipol)            ewald-force                    non-local-force                 convergence-correction
 -----------------------------------------------------------------------------------------------
   0.653E+01 -.898E-09 0.176E+03   -.655E+01 0.127E-10 -.183E+03   0.131E-01 -.217E-18 0.649E+01   -.482E-07 0.869E-14 -.951E-06
   0.653E+01 0.631E-10 0.176E+03   -.655E+01 0.200E-14 -.183E+03   0.131E-01 -.434E-18 0.649E+01   -.482E-07 0.938E-14 -.951E-06
   0.653E+01 0.897E-09 0.176E+03   -.655E+01 -.127E-10 -.183E+03   0.131E-01 -.217E-18 0.649E+01   -.482E-07 -.294E-13 -.951E-06
   0.653E+01 -.101E-07 0.176E+03   -.655E+01 0.127E-10 -.183E+03   0.131E-01 0.217E-18 0.649E+01   -.482E-07 -.108E-13 -.951E-06
   0.653E+01 0.992E-10 0.176E+03   -.655E+01 0.178E-14 -.183E+03   0.131E-01 0.412E-17 0.649E+01   -.482E-07 0.404E-14 -.951E-06
   0.653E+01 0.102E-07 0.176E+03   -.655E+01 -.127E-10 -.183E+03   0.131E-01 -.434E-18 0.649E+01   -.482E-07 -.412E-14 -.951E-06
   0.653E+01 0.105E-07 0.176E+03   -.655E+01 0.127E-10 -.183E+03   0.131E-01 -.867E-18 0.649E+01   -.482E-07 0.200E-13 -.951E-06
   0.653E+01 -.124E-09 0.176E+03   -.655E+01 0.178E-14 -.183E+03   0.131E-01 -.651E-18 0.649E+01   -.482E-07 -.256E-13 -.951E-06
   0.653E+01 -.106E-07 0.176E+03   -.655E+01 -.127E-10 -.183E+03   0.131E-01 0.217E-18 0.649E+01   -.482E-07 -.584E-14 -.951E-06
   -.214E-01 0.657E-10 0.117E+00   0.220E-01 -.142E-13 -.110E+00   -.135E-02 -.169E-20 -.665E-02   -.115E-06 0.128E-13 -.438E-06
   -.214E-01 0.106E-07 0.117E+00   0.220E-01 -.125E-10 -.110E+00   -.135E-02 0.424E-20 -.665E-02   -.115E-06 0.379E-14 -.438E-06
   -.214E-01 -.105E-07 0.117E+00   0.220E-01 0.125E-10 -.110E+00   -.135E-02 -.508E-20 -.665E-02   -.115E-06 -.111E-13 -.438E-06
   -.214E-01 -.421E-10 0.117E+00   0.220E-01 -.688E-14 -.110E+00   -.135E-02 0.381E-20 -.665E-02   -.115E-06 -.148E-13 -.438E-06
   -.214E-01 0.639E-08 0.117E+00   0.220E-01 -.125E-10 -.110E+00   -.135E-02 0.847E-21 -.665E-02   -.115E-06 0.205E-13 -.438E-06
   -.214E-01 -.619E-08 0.117E+00   0.220E-01 0.125E-10 -.110E+00   -.135E-02 0.127E-20 -.665E-02   -.115E-06 -.468E-15 -.438E-06
   -.214E-01 0.673E-10 0.117E+00   0.220E-01 -.711E-14 -.110E+00   -.135E-02 0.424E-20 -.665E-02   -.115E-06 -.245E-14 -.438E-06
   -.214E-01 0.330E-07 0.117E+00   0.220E-01 -.125E-10 -.110E+00   -.135E-02 0.847E-21 -.665E-02   -.115E-06 0.576E-14 -.438E-06
   -.214E-01 -.329E-07 0.117E+00   0.220E-01 0.125E-10 -.110E+00   -.135E-02 0.424E-20 -.665E-02   -.115E-06 0.161E-14 -.438E-06
   -.652E+01 0.232E-08 -.176E+03   0.653E+01 0.126E-10 0.183E+03   -.115E-01 -.108E-17 -.648E+01   0.191E-06 0.113E-13 0.300E-06
   -.652E+01 0.164E-10 -.176E+03   0.653E+01 0.577E-14 0.183E+03   -.115E-01 0.434E-18 -.648E+01   0.191E-06 -.118E-13 0.300E-06
   -.652E+01 -.234E-08 -.176E+03   0.653E+01 -.126E-10 0.183E+03   -.115E-01 0.651E-18 -.648E+01   0.191E-06 -.203E-13 0.300E-06
   -.652E+01 0.402E-07 -.176E+03   0.653E+01 0.127E-10 0.183E+03   -.115E-01 0.217E-18 -.648E+01   0.191E-06 -.482E-14 0.300E-06
   -.652E+01 0.279E-10 -.176E+03   0.653E+01 0.107E-13 0.183E+03   -.115E-01 0.434E-18 -.648E+01   0.191E-06 0.217E-13 0.300E-06
   -.652E+01 -.402E-07 -.176E+03   0.653E+01 -.127E-10 0.183E+03   -.115E-01 0.282E-17 -.648E+01   0.191E-06 -.374E-13 0.300E-06
   -.652E+01 0.182E-07 -.176E+03   0.653E+01 0.127E-10 0.183E+03   -.115E-01 0.217E-18 -.648E+01   0.191E-06 -.837E-14 0.300E-06
   -.652E+01 0.705E-10 -.176E+03   0.653E+01 0.711E-14 0.183E+03   -.115E-01 -.651E-18 -.648E+01   0.191E-06 -.159E-14 0.300E-06
   -.652E+01 -.182E-07 -.176E+03   0.653E+01 -.127E-10 0.183E+03   -.115E-01 -.434E-18 -.648E+01   0.191E-06 -.995E-14 0.300E-06
 -----------------------------------------------------------------------------------------------
   -.567E-01 0.618E-09 -.265E-02   0.167E-12 -.951E-14 0.000E+00   0.226E-02 0.435E-17 -.631E-02   0.248E-06 -.794E-13 -.980E-05
 
 
 POSITION                                       TOTAL-FORCE (eV/Angst)
 -----------------------------------------------------------------------------------
      3.66120      2.11240      1.50590        -0.003294     -0.000000     -0.003792
      3.66120      6.33720      1.50590        -0.003294     -0.000000     -0.003792
      3.66120     10.56199      1.50590        -0.003294     -0.000000     -0.003792
      9.23112      2.11240      1.50590        -0.003294      0.000000     -0.003792
      9.23112      6.33720      1.50590        -0.003294      0.000000     -0.003792
      9.23112     10.56199      1.50590        -0.003294      0.000000     -0.003792
     14.80104      2.11240      1.50590        -0.003294     -0.000000     -0.003792
     14.80104      6.33720      1.50590        -0.003294     -0.000000     -0.003792
     14.80104     10.56199      1.50590        -0.003294     -0.000000     -0.003792
      0.00017      0.00000      2.57929         0.001229     -0.000000      0.000862
      0.00017      4.22480      2.57929         0.001229      0.000000      0.000862
      0.00017      8.44960      2.57929         0.001229     -0.000000      0.000862
      5.57009      0.00000      2.57929         0.001229     -0.000000      0.000862
      5.57009      4.22480      2.57929         0.001229      0.000000      0.000862
      5.57009      8.44960      2.57929         0.001229     -0.000000      0.000862
     11.14002      0.00000      2.57929         0.001229      0.000000      0.000862
     11.14002      4.22480      2.57929         0.001229     -0.000000      0.000862
     11.14002      8.44960      2.57929         0.001229      0.000000      0.000862
      1.90856      2.11240      3.65481         0.002065     -0.000000      0.002930
      1.90856      6.33720      3.65481         0.002065     -0.000000      0.002930
      1.90856     10.56199      3.65481         0.002065     -0.000000      0.002930
      7.47848      2.11240      3.65481         0.002065      0.000000      0.002930
      7.47848      6.33720      3.65481         0.002065      0.000000      0.002930
      7.47848     10.56199      3.65481         0.002065      0.000000      0.002930
     13.04840      2.11240      3.65481         0.002065     -0.000000      0.002930
     13.04840      6.33720      3.65481         0.002065     -0.000000      0.002930
     13.04840     10.56199      3.65481         0.002065     -0.000000      0.002930
 -----------------------------------------------------------------------------------
    total drift:                               -0.054406      0.000000     -0.008979


--------------------------------------------------------------------------------------------------------



  FREE ENERGIE OF THE ION-ELECTRON SYSTEM (eV)
  ---------------------------------------------------
  free  energy   TOTEN  =       -26.03963330 eV

  energy  without entropy=      -26.03963330  energy(sigma->0) =      -26.03963330
 


--------------------------------------------------------------------------------------------------------


    POTLOK:  cpu time   36.67: real time   39.29


--------------------------------------------------------------------------------------------------------


 stress matrix after NEB project (eV)
      0.23761      0.00000     -0.01598
      0.00000      0.26292      0.00000
     -0.01598      0.00000      0.03082
  FORCES: max atom, RMS     0.005023    0.003666
  FORCE total and by dimension    0.019051    0.003792
  Stress total and by dimension    0.356433    0.262920
 Quasi-Newton relaxation of ions (Broydens 2nd method)
  g(Force)  = 0.700E-05   g(Stress)= 0.908E-04

 Reset! Starting new Quasi-Newton update for ions 


--------------------------------------------------------------------------------------------------------


  
 reached required accuracy - stopping structural energy minimisation
     LOOP+:  cpu time 2965.01: real time 3415.86
    4ORBIT:  cpu time    0.00: real time    0.00

 total amount of memory used by VASP on root node   222017. kBytes
========================================================================

   base      :      30000. kBytes
   nonlr-proj:       3284. kBytes
   fftplans  :      38536. kBytes
   grid      :      55030. kBytes
   one-center:         24. kBytes
   wavefun   :      95143. kBytes
 
  
  
 General timing and accounting informations for this job:
 ========================================================
  
                  Total CPU time used (sec):     2983.865
                            User time (sec):     2945.075
                          System time (sec):       38.790
                         Elapsed time (sec):     3440.409
  
                   Maximum memory used (kb):      874872.
                   Average memory used (kb):           0.
  
                          Minor page faults:      6753762
                          Major page faults:        16061
                 Voluntary context switches:       125489
